# vtk DataFile Version 4.0
Generated by LIGGGHTS
ASCII
DATASET POLYDATA
POINTS 25566 float
-0.0129262 -0.0453665 0.00277059 -0.00745442 -0.044435 0.00283738 -0.00301478 -0.0442807 0.0060506 
1.29758e-05 -0.0457423 0.00266545 0.0138819 -0.045521 0.00284716 -0.0202667 -0.0430318 0.00185603 
-0.0242118 -0.0377507 0.00309583 -0.00952159 -0.0392977 0.0032918 -0.000544953 -0.0404503 0.00438921 
0.00750321 -0.0434461 0.00429153 0.0141859 -0.0395302 0.00259998 0.0204972 -0.0417333 0.00282423 
-0.0332599 -0.0331619 0.00403968 -0.0283451 -0.0336593 0.0063237 -0.000596399 -0.0336096 0.00622734 
0.00876285 -0.0326754 0.00620277 0.0247832 -0.0361474 0.00423104 0.0304082 -0.0366084 0.00577368 
-0.037634 -0.0291506 0.00301092 -0.0244076 -0.0283618 0.00570639 -0.00941965 -0.0259521 0.00285315 
-0.0019348 -0.0281773 0.00541814 0.00612743 -0.0262971 0.00655887 0.00926289 -0.0285581 0.00293113 
0.016492 -0.0281535 0.00626941 0.0194017 -0.0263805 0.00259823 0.0343975 -0.0311144 0.00530291 
0.0342586 -0.0262852 0.00593429 -0.037509 -0.0229533 0.00604775 -0.0384429 -0.0191751 0.00305832 
-0.0243952 -0.0201569 0.00290885 -0.00904442 -0.0195381 0.00382053 -0.00101813 -0.0216086 0.00355153 
0.0105128 -0.0216384 0.00277095 0.0230312 -0.0237327 0.0043921 0.0293798 -0.0243158 0.00245473 
0.0355976 -0.0206447 0.00249307 -0.0451242 -0.0129277 0.00258325 -0.043643 -0.0170272 0.00630351 
-0.0204738 -0.0126719 0.00443464 -0.0138161 -0.0177174 0.0040115 0.00495575 -0.0186694 0.00538219 
0.00700867 -0.0151649 0.00277501 0.0180456 -0.0172295 0.00508798 0.0442299 -0.0167494 0.00401509 
-0.0456177 -0.00694211 0.00473544 -0.0335872 -0.00939348 0.00292611 -0.0265843 -0.012422 0.00365474 
-0.0132743 -0.0116068 0.0044129 -0.00791339 -0.0102146 0.00598591 0.0116917 -0.00719201 0.00535756 
0.00737794 -0.00882824 0.00368513 0.0257154 -0.0119698 0.00391287 0.0366157 -0.00927449 0.00266602 
0.0453745 -0.0119642 0.00430261 -0.0292729 -0.000260373 0.00519405 -0.0142616 -0.00408021 0.00481272 
0.000363388 -0.00246779 0.00390817 0.0130725 -5.21265e-05 0.00515553 0.0265906 -0.00100411 0.00598386 
0.0317135 -0.000670926 0.0030605 0.046713 -0.00464546 0.00256466 -0.0416071 0.000221572 0.00581858 
-0.0259644 0.00570738 0.00449148 -0.0187713 0.00117356 0.00555235 -0.0137136 0.00562408 0.00436686 
-0.00290289 0.00114379 0.00296716 0.0025176 0.00333931 0.00314205 0.00803905 0.00234568 0.00432717 
0.0180824 0.00177449 0.00374732 -0.0348533 0.0114371 0.00553188 0.00661752 0.0106755 0.00421638 
0.0189336 0.00743285 0.00519228 0.0363669 0.00793264 0.00425374 0.042894 0.0101341 0.00643866 
0.00585036 0.0171133 0.00326403 0.0158936 0.0140432 0.00248567 0.0385331 0.0163934 0.00380065 
-0.00540652 0.022736 0.00447243 0.024474 0.0242235 0.00399727 0.0289185 0.0226229 0.00259097 
-0.0305447 0.0250565 0.00376432 -0.0109694 0.0271687 0.00438654 -0.00194329 0.0292035 0.00592776 
0.00656485 0.025467 0.00532591 0.0138059 0.0261155 0.00286659 0.0171201 0.0275971 0.00619953 
-0.0214707 0.0322439 0.00375606 -0.01514 0.0323867 0.0044853 -0.0083807 0.0356889 0.00322651 
0.0011092 0.0323391 0.00319693 0.020369 0.0322677 0.00646124 0.00253748 0.0375691 0.00522517 
-0.0150672 -0.0447808 0.012304 -0.0175793 -0.0439807 0.0067872 -0.00913809 -0.0451802 0.00755504 
-0.00508108 -0.0459779 0.0102609 0.0011699 -0.046672 0.00821453 0.00641256 -0.0458121 0.00860316 
0.0165941 -0.0446096 0.00782679 0.0156841 -0.0449368 0.0127624 -0.0264334 -0.0394298 0.00931078 
-0.0205048 -0.0411779 0.0118656 -0.0205338 -0.0399623 0.0071454 -0.0134396 -0.0413832 0.00893084 
-0.0102832 -0.0433524 0.0123531 -0.00574352 -0.0412552 0.00876 0.00575688 -0.0383952 0.00707342 
0.00557323 -0.0406721 0.0128964 0.0157655 -0.0392203 0.00783592 0.0212671 -0.0424713 0.00932929 
0.0255238 -0.0401105 0.00809492 -0.0319514 -0.0352076 0.00925956 -0.0279993 -0.0353297 0.0121339 
-0.0160605 -0.0373641 0.00800501 -0.0144671 -0.0327819 0.0078279 -0.00428537 -0.0341569 0.0123761 
0.00646689 -0.0348901 0.0103904 0.0124218 -0.0362096 0.0124965 0.0207072 -0.0373949 0.00688875 
0.0192643 -0.035341 0.0129439 0.0256273 -0.0352135 0.00934582 0.0312222 -0.0356437 0.0126063 
0.0283002 -0.031284 0.00823943 -0.0313511 -0.0285997 0.00799173 -0.0369797 -0.0285343 0.00818051 
-0.0260615 -0.0305354 0.012597 -0.0171546 -0.0281119 0.00686916 -0.00990781 -0.030468 0.00974687 
-0.00717065 -0.0269873 0.00788593 0.0190147 -0.0295815 0.0104653 0.0201276 -0.0254284 0.00812053 
0.038969 -0.027205 0.0130059 -0.0415566 -0.0214282 0.0102704 -0.0235981 -0.0233043 0.0106919 
-0.0118232 -0.022632 0.0100897 -0.00473104 -0.0245002 0.0116772 0.00131409 -0.0240302 0.00721672 
0.00550288 -0.0230901 0.0124958 0.0120358 -0.0237149 0.00819354 0.00931106 -0.0190204 0.00922763 
0.0296894 -0.0198296 0.00783669 0.036621 -0.0207935 0.00851057 0.0408164 -0.0240813 0.00894914 
-0.0394183 -0.014082 0.00928627 -0.0335519 -0.0160514 0.0109908 -0.0255732 -0.018711 0.00829304 
-0.0219317 -0.015385 0.00866456 -0.016434 -0.0157003 0.0104883 -0.0108174 -0.0178959 0.00844966 
0.014214 -0.0146651 0.0122302 0.0213835 -0.017997 0.0123929 0.0291839 -0.0155397 0.0125143 
0.03132 -0.0153969 0.00680412 0.0401914 -0.0128742 0.00705513 -0.0443328 -0.0116782 0.012243 
-0.03633 -0.00853666 0.0106051 -0.0286667 -0.0114045 0.0122847 -0.0305942 -0.00668624 0.00991007 
-0.0193787 -0.00782269 0.00672715 -0.015565 -0.0113212 0.0127742 -0.0094307 -0.0117258 0.0113786 
0.000589028 -0.0101372 0.0127389 0.00530736 -0.00916734 0.0130988 0.0222644 -0.0123565 0.00777815 
0.0345808 -0.0111249 0.0106879 0.0466408 -0.00924737 0.0122744 -0.0398581 -0.00582947 0.0073432 
-0.0408516 -0.0024499 0.0120979 -0.0264112 -0.00224762 0.010286 -0.0207469 -0.00280692 0.00760236 
-0.0154931 -0.00237255 0.01252 -0.0099776 -0.00341379 0.0116771 -0.00472398 -0.00588301 0.0100503 
-0.00229018 -0.000944579 0.0120122 0.0118944 -0.00110523 0.0103412 0.00697362 -0.00427057 0.0124098 
0.021789 -0.00265221 0.0111683 0.0345513 -0.00546652 0.0077249 0.0373362 -0.000438842 0.0111311 
0.0425839 -0.00298541 0.00944702 -0.0399112 0.00192921 0.0102618 -0.0334557 0.000733281 0.00959039 
-0.0305995 0.00474352 0.00997763 -0.0207525 0.00304186 0.0127512 -0.00684746 0.00473756 0.00921998 
0.0204685 0.00402953 0.00942786 0.02931 0.00363684 0.0111648 0.0391512 0.00345833 0.0072998 
0.0453092 0.00182211 0.00877309 -0.0398277 0.00655823 0.00818816 -0.0411125 0.0116692 0.00899731 
-0.0203893 0.00735552 0.00989799 -0.0127375 0.0104078 0.00681573 -0.00289043 0.0106815 0.0113247 
0.00189308 0.00701044 0.0114835 0.0138286 0.00776608 0.0126627 0.0189991 0.00871805 0.0101974 
0.0232 0.0119369 0.00747283 0.0308751 0.00817662 0.0123408 0.0372596 0.011574 0.00984241 
-0.0359895 0.0149357 0.0106477 -0.0236375 0.0146561 0.0121656 -0.0248631 0.015138 0.00680442 
-0.0133261 0.018583 0.0130594 -0.00651963 0.0145727 0.00728791 0.000840582 0.0177262 0.00881215 
0.00928319 0.0126152 0.00911732 0.0113659 0.0174644 0.00963481 0.0250505 0.0141741 0.0121032 
0.0266335 0.0185413 0.007105 0.0313278 0.0156259 0.0120818 -0.0378218 0.0189162 0.00745378 
-0.0246427 0.020005 0.00868763 -0.0131829 0.0245388 0.0080508 -0.0180798 0.023688 0.0101131 
0.000948091 0.02464 0.00870293 0.00738589 0.0246638 0.011132 0.0132643 0.0224445 0.0066051 
0.018054 0.0228312 0.00832127 0.0250868 0.0236761 0.0104024 -0.0257549 0.0278529 0.0115911 
-0.024678 0.0270675 0.00696888 -0.0154199 0.0275852 0.0127507 -0.00717916 0.02987 0.00993241 
0.011218 0.0309885 0.0117989 0.0285439 0.0276268 0.00766053 0.0051136 0.0343383 0.00973792 
0.00947502 0.0366528 0.00792701 -0.00763791 -0.0468194 0.0158881 -0.00195176 -0.0462996 0.0158031 
0.00316336 -0.0462715 0.017088 0.00880218 -0.0467639 0.0146683 0.0136605 -0.0454143 0.0174635 
-0.028021 -0.0383734 0.0164229 -0.023689 -0.0404739 0.0154717 -0.0165663 -0.0405649 0.0188325 
-0.00733801 -0.0397915 0.0149084 -0.00673725 -0.0429628 0.0190298 -0.00190279 -0.0422826 0.018841 
0.00958786 -0.0421088 0.0163022 0.00805967 -0.0388807 0.0195339 0.0171366 -0.0400203 0.0133088 
0.0214424 -0.0422783 0.0158305 0.0232864 -0.0376778 0.0158625 0.0292855 -0.0375005 0.0185877 
-0.0345893 -0.0323036 0.0147829 -0.0196242 -0.0341569 0.0139834 -0.0220519 -0.0361144 0.0186233 
-0.0132755 -0.0313426 0.0190244 -0.00820642 -0.0352219 0.0164902 -0.00201839 -0.032955 0.0173453 
0.00170631 -0.0319733 0.0135108 0.0155814 -0.0332525 0.0154069 0.0314718 -0.0334053 0.0170585 
-0.0394786 -0.0264518 0.014501 -0.0304081 -0.0288166 0.0156557 -0.0259782 -0.026184 0.0184298 
-0.02198 -0.0271063 0.0144276 -0.0158101 -0.0295755 0.0151478 -0.00649243 -0.0281951 0.0155901 
0.00525856 -0.0293732 0.0173987 0.0256132 -0.0294743 0.0146757 0.0350476 -0.0300977 0.015907 
-0.03501 -0.0222809 0.0161253 -0.0155716 -0.021918 0.0134598 0.00190924 -0.0213527 0.0164869 
0.00981055 -0.0240599 0.0158832 0.0124704 -0.0196094 0.0150133 0.00796624 -0.0213408 0.0195899 
0.0145348 -0.0240302 0.0174034 0.0192471 -0.0235721 0.0133307 0.0246319 -0.0223642 0.014699 
0.0333603 -0.022745 0.0166495 0.0398419 -0.0226997 0.0145951 -0.0358543 -0.0133917 0.0174654 
-0.00697368 -0.0165036 0.0147462 -0.000220525 -0.0163013 0.0147685 0.00429535 -0.0179613 0.0131816 
0.00530703 -0.0147483 0.0181801 0.0153801 -0.016444 0.0185557 0.0198665 -0.013957 0.014675 
0.0215798 -0.0185265 0.0195621 0.0286959 -0.0185146 0.0167681 0.0333844 -0.0179613 0.0188124 
-0.0439102 -0.00920897 0.0176466 -0.0310167 -0.0073288 0.0160953 -0.0216518 -0.0118091 0.0152971 
-0.0078657 -0.00872704 0.0151945 0.0149819 -0.00913163 0.0157119 0.0194026 -0.0101133 0.0188857 
0.0270065 -0.0117198 0.0177868 0.0266735 -0.00852475 0.0132051 -0.0456293 -0.00227733 0.0168422 
-0.0403756 -0.00277118 0.0169507 -0.0260543 -0.00414561 0.0159643 -0.0184087 -0.00576397 0.0187738 
-0.00376593 -0.0039195 0.018041 0.0216877 -0.00556763 0.0167762 0.0313027 -0.00575208 0.0153092 
0.0382285 -0.00278308 0.0154551 0.0463859 -0.00216428 0.0173135 -0.0408751 0.0021494 0.0181779 
-0.0350384 0.000376309 0.0141179 -0.0322535 0.00543373 0.0155534 -0.0179561 0.00119146 0.018081 
[...]
POINT_DATA 25566
FIELD FieldData 7
id 1 25566 int
24104 12235 17127 17592 9706 18237 4027 19243 17788 
15003 3815 3915 1733 22508 8323 12071 24539 18280 
19603 9342 15804 4209 18556 12929 24643 1976 21754 
18627 6577 866 23400 2800 13060 7727 7424 21915 
4050 17782 21973 17897 24201 11033 15614 22383 18723 
13511 6767 23541 3930 7991 7345 20841 7768 5622 
15705 21677 6562 9198 8493 10699 18031 478 9321 
14209 1513 12389 3647 19124 11873 18709 4798 10200 
20376 13534 6150 20566 7739 14312 19908 8150 8958 
22192 13695 22436 20552 3354 18494 23175 629 21966 
2976 3531 23816 1470 22568 4803 9815 6067 22566 
5901 18301 24433 12345 3205 24260 6619 10059 3330 
22607 22422 18230 5109 15187 14977 8153 18818 2422 
6579 15243 19780 3270 34 17400 9348 4425 16252 
24157 14705 4578 24184 2983 20122 13134 22741 3638 
23778 3075 16970 8448 21716 4629 15588 21920 16533 
8952 24113 12820 25318 7029 12565 14163 20361 7196 
20857 6111 1339 23750 13995 13069 18478 17480 23117 
4704 10485 2616 284 17751 2142 3788 18984 8656 
14683 19141 4611 1873 21310 464 22630 8511 18218 
1034 16193 24378 23265 24655 4685 7767 14923 1905 
19231 16278 10354 14109 2170 4620 8749 7508 16914 
8609 12739 6210 17311 3464 544 14706 3602 21911 
21997 17099 302 22183 2256 344 23497 1787 10126 
20466 10176 2329 12435 17628 24460 22514 17414 15494 
7914 20448 23516 19567 8683 1695 23314 20980 25170 
17364 5793 5405 6754 2368 24932 778 16512 10345 
14228 23681 23616 8568 19974 19159 1910 1794 17088 
20895 20434 7119 4046 20758 10363 19572 11799 10807 
6724 22941 21322 5562 3082 590 718 18893 14299 
16885 1834 10068 10777 3761 2599 11847 14490 25045 
13683 9995 1689 18810 8691 20401 11062 9118 14156 
14508 12086 9972 19959 8191 4552 25179 18265 3196 
8115 384 6451 286 6077 700 19950 8006 11570 
1557 21272 13406 11763 4916 19264 13629 23909 23644 
7934 10781 9710 18842 11359 7328 21841 10081 14792 
15620 13386 20071 8200 17303 9571 7375 2326 15426 
3215 21186 23236 5228 8833 16785 17952 11231 14916 
21011 15038 19548 6442 15735 96 23189 16232 22222 
16275 14531 7454 10521 9403 9399 4176 5142 22389 
7964 18340 3243 19384 16572 11332 17412 6906 10641 
18900 5619 12868 15498 21974 2115 15429 12620 1594 
21263 21985 14929 361 9197 2152 6449 8660 2511 
12598 24907 1878 13186 17596 9754 3161 1639 17367 
17540 3431 560 21364 20347 19077 16906 586 7482 
577 13825 9027 20636 148 11576 1968 10240 17657 
14667 9432 3901 25074 15181 10459 4786 20537 6573 
5092 8470 4548 14504 20529 23764 7484 17743 20660 
4390 21646 13250 18634 21937 16270 6895 13441 12070 
24745 12218 691 5304 19232 6879 17627 6731 8960 
10718 1185 13566 20247 13268 14768 18561 3389 12947 
20727 14029 18056 10634 6468 16057 20798 10849 11566 
17900 14357 4596 14159 606 6694 16747 22933 2806 
16653 7184 473 24996 1092 17059 22482 1856 8573 
11330 11829 16948 10915 22351 10342 14689 24876 2476 
11325 3207 19189 10615 342 366 13747 11866 5066 
20298 22831 19978 913 21815 16094 4899 16916 11899 
19635 15941 19157 9353 16253 8576 13872 23480 15128 
13703 80 21120 9679 2155 988 13183 23249 10760 
5556 25415 21381 15628 9188 21521 9512 16618 24902 
11921 3653 19054 23058 22874 24742 6959 5665 5455 
12832 2038 8976 10827 5954 8922 12095 19894 19565 
9835 2499 5958 6359 18098 19135 3753 13109 2125 
13013 2435 25194 13272 19785 22865 4393 261 9418 
7777 14174 13174 9239 18636 11780 7323 23420 14804 
6071 22331 11199 16717 18779 24345 2035 3568 24510 
7245 12327 25432 18140 21506 20601 8556 19687 19202 
21602 4080 2258 233 2311 24806 8642 19479 21828 
14885 17867 14809 14800 303 1313 5659 4487 5878 
14518 11593 7380 23273 747 4808 10796 10028 18094 
16577 1022 24641 14110 12222 17301 22346 9088 20573 
5417 21827 22195 10809 18430 8522 8058 17053 18158 
12204 7159 22965 20095 4712 17061 21063 3813 11656 
40 103 9588 17740 10209 15012 1784 2971 15220 
2122 4826 24100 7014 8740 11153 20348 24266 1194 
12425 9919 18047 15797 5467 14345 19573 742 18381 
9716 323 3700 7143 15791 4085 19561 24060 6331 
25240 5611 12263 21240 22340 19068 22355 25440 5283 
21675 11743 9178 4273 9884 13981 8144 23367 23353 
21339 20178 5533 4699 9961 14920 20360 16549 12392 
867 24362 8406 638 1171 16707 23213 20690 5895 
3918 5370 13546 23340 16430 15872 7526 10717 20736 
13236 6742 14757 20185 12411 24928 19183 10552 14788 
22953 24933 1354 21283 17815 19175 3258 13142 20286 
23449 21515 16631 19353 24197 21992 19003 3361 3030 
11285 11719 21027 17204 17839 22088 2864 21348 13113 
12055 3535 14670 19049 9473 2485 1525 18662 1332 
3132 7551 18620 22359 11513 15727 22236 21942 19577 
13708 8921 22214 19043 9598 21813 6987 13513 13655 
19983 17008 17009 20332 16908 18902 25094 17846 23864 
18113 94 14793 1558 9616 14528 2687 16724 10523 
5753 15215 22614 6607 6073 23729 1575 12380 19924 
23865 10529 4738 25417 10929 21231 8599 10004 23892 
14082 23108 22064 1004 23686 14130 20648 3213 14370 
9006 7700 14631 7838 21908 21959 21447 15602 537 
24734 21005 23134 5841 23823 6672 4765 8781 3512 
23088 1904 20194 17901 20992 16406 16298 21860 4618 
8327 18686 7578 9503 6612 9852 194 9671 7495 
15175 5052 9214 6552 14761 18715 15361 20773 17084 
2197 19859 770 1210 15827 22780 24360 2309 14185 
24680 13480 720 10356 22804 12965 1343 7266 4063 
12497 13795 9621 8046 7492 22491 3339 19885 2091 
241 10969 9074 13320 5029 7490 11659 20255 21328 
11456 1266 17964 17380 7663 21829 1505 12553 23352 
12228 5831 15200 24920 14086 17475 8826 14298 3209 
10681 5159 4470 4936 16861 19533 4102 5306 13570 
16230 7189 10052 5221 8008 3567 11003 636 19969 
1980 3134 10608 83 1413 2609 11662 8392 11096 
16343 5068 9142 13779 551 12920 24240 7035 19194 
13636 17463 3076 25518 18129 3102 18800 18531 7760 
19127 6627 14608 21080 4421 9070 23467 19226 6420 
16634 7216 11195 2700 18243 23952 10350 7672 16384 
16511 24153 16101 22771 20861 3135 6887 9230 9434 
22017 23045 21075 21052 2196 21371 18115 19411 9622 
1574 3945 8622 8047 17976 4364 20397 23410 20088 
20353 20483 10510 23543 15248 15896 5168 22137 4728 
2194 20791 18290 10983 10908 23132 4174 18753 7986 
10586 22570 22161 11248 3748 24399 15912 18069 16553 
12388 12506 12515 2296 23044 23225 14604 5620 4128 
8427 1879 24354 1890 20066 10029 19602 12123 8914 
12253 11622 6325 2278 846 5106 975 5023 10997 
11211 11665 19989 5329 9987 2185 21900 3422 22994 
22636 19868 22005 8042 18693 3122 5803 3428 20541 
8111 8807 4108 823 7308 1148 4319 20822 4285 
17076 17487 5632 23954 17214 5772 25341 9382 5460 
2353 22240 12691 1675 15116 22308 6778 14579 6241 
9243 24301 13700 19060 13101 15793 19449 410 12109 
8185 14287 4860 10855 7031 9172 890 24465 5843 
4547 13011 10284 20631 11600 25230 16952 6972 19177 
21194 15990 6141 540 7138 20671 7587 3219 17801 
4637 7410 7628 1344 12063 10216 21629 13068 20000 
19455 19276 7252 4034 9412 533 15893 16737 22203 
25215 22345 1791 4235 24394 11189 18246 15930 9973 
5730 4065 4468 2117 24282 6878 12249 9846 3801 
18484 1488 24208 16877 11893 13945 25446 19772 19369 
10017 7778 18994 6543 13652 15879 14189 4175 18816 
4646 19245 17799 22729 3546 22052 7788 22663 6454 
7383 4118 23282 22264 17159 21698 16521 8411 573 
22928 10445 9238 7362 3449 12940 19115 2966 11807 
14014 1287 4006 2702 21919 3987 12579 25327 3660 
15502 852 22969 16545 2525 5985 19088 2876 2716 
1741 19452 25423 5829 25456 7071 17655 21704 8339 
1012 19240 11841 11596 12450 16302 12842 20046 16865 
23632 17360 10679 19495 6858 23193 6151 7896 21071 
8092 11651 16884 9298 11979 19252 9638 11905 20730 
11284 22301 640 20960 23790 4443 1549 136 9709 
15416 22352 4168 17394 14246 15642 17583 828 11887 
8497 5148 13846 24656 8678 22988 15103 3739 4961 
16440 4727 8241 6243 9625 272 6789 15768 1585 
18969 14331 14554 15080 18751 23766 9523 20982 18296 
5423 21205 15954 15586 14693 6764 5578 16388 1106 
14890 5070 6094 5921 987 2145 3828 19061 18176 
5522 24530 15171 6854 12784 12029 16605 5892 22320 
21499 4325 21924 19309 23626 25140 1298 443 13240 
20033 16364 19714 12408 19374 2312 4885 9527 15646 
2512 11496 18657 18462 2180 13575 8437 21209 1943 
15409 20034 5836 24263 5563 644 23841 11699 25457 
23797 8973 5896 15659 20684 18901 1195 2969 19415 
12569 25143 22387 8869 16267 11079 7653 25316 19941 
19257 2416 9700 1153 7773 9899 16365 13380 23857 
13325 12363 23935 10281 15364 9540 2813 7516 24024 
529 11624 23601 5906 17933 1724 18380 20009 11026 
6270 10234 17036 1314 19093 22905 5194 11681 6347 
5645 7614 19520 10306 2547 19964 19763 9971 21156 
326 23436 17925 17629 3699 7370 21912 7191 12934 
13502 7881 9169 14552 16494 19562 21799 14972 3851 
19998 22418 13712 21237 1991 14838 19487 17742 24420 
8884 13966 4104 14389 3202 5272 10572 8211 12533 
1721 15483 11492 25474 4690 12741 1116 2357 15742 
25061 13509 1805 18073 9356 22873 14930 17665 23438 
14383 22297 11549 263 23186 10402 7158 6994 14157 
9644 6691 10885 13680 17840 11078 16032 14679 20060 
21553 17838 2273 5628 14655 20865 11757 21951 5096 
5917 24114 16888 24046 5452 14256 1811 21926 11083 
666 2267 11202 24545 5025 19330 19958 18992 14913 
24710 22131 8174 14575 17716 20216 14144 1514 21517 
15434 685 8816 3465 13822 14132 16650 4194 18159 
19229 4066 7901 262 509 9826 20098 22229 3116 
20460 10858 15391 20105 21634 4776 20249 2298 17371 
1955 4820 16214 17498 21820 1303 14674 9499 9042 
2420 13938 23403 22554 10492 4061 14493 12908 4054 
9036 21494 277 649 2259 3794 3420 22014 5797 
8517 16285 20689 14480 12986 3145 24852 10984 10289 
13964 23747 10810 12053 10291 23065 3896 15471 9949 
16109 10202 22944 8597 23629 13690 11537 12143 23653 
19523 10467 217 5748 19796 18724 24318 1988 10317 
4609 13521 3620 12960 13462 20270 16775 2912 20702 
6010 21548 16935 14566 17870 5932 6824 18602 17680 
24807 14613 3524 1914 10544 10741 6335 8261 10422 
7379 5265 18437 18613 11677 24927 10797 7043 2236 
5804 356 14727 10542 10610 23715 3434 15438 10309 
21976 2495 18306 24308 25181 6931 21359 9267 23487 
20919 17651 961 3751 15046 9067 19268 22165 23258 
5507 20598 10905 442 23911 10921 13715 686 16500 
20020 9776 9619 3257 220 15272 9689 20205 15644 
16281 15338 9607 9195 17086 14601 9037 24055 1668 
5231 21901 23336 9150 1945 16351 4851 6604 19013 
15944 14795 11480 17831 12316 19643 21308 12021 20392 
9918 18875 16366 13379 9082 17314 13028 8762 10758 
17287 275 2791 11450 15067 5446 10954 16292 15952 
17615 9605 23615 20867 14262 9329 15057 8886 18461 
7039 25526 18275 16273 8439 11884 25003 21581 13207 
4841 13577 23779 9429 11953 22223 1307 21700 2760 
483 7110 5384 17124 5808 5298 3983 13254 24313 
5275 11171 7970 6981 297 11468 22885 6651 21395 
4869 21456 22563 11112 13415 5830 6251 10736 13621 
5463 16050 16370 5079 5713 5599 23937 17632 22533 
1718 6089 16363 24892 21198 14248 14462 19801 10010 
21325 15537 22118 6083 24330 19810 21470 3071 23250 
18384 11795 10397 17477 12770 18553 21597 17691 15507 
11853 23327 3021 18825 4532 11021 13770 24614 23476 
20821 22204 7232 3119 5673 9157 9803 10558 2411 
8378 1767 24768 33 4889 19711 16829 7741 9213 
3553 10684 7280 4030 18721 9367 9247 10274 7790 
22056 19030 19645 24381 3396 7902 12777 13922 14338 
5588 17369 20002 15763 1949 17451 11896 9454 17949 
9031 24832 4165 20703 18576 12186 9229 14600 4342 
13432 9627 4976 1406 3891 14254 729 7193 20149 
24371 3992 16809 21516 10874 12893 4471 44 21858 
6154 12308 11261 4970 21790 23745 11387 16695 4206 
1515 5637 23307 11533 23942 3745 15350 19178 16570 
2650 7804 13849 16736 8524 23571 13823 5711 23535 
7070 21671 23964 23370 24683 305 486 19612 8627 
2799 23838 8729 23917 5634 17981 8674 11319 1219 
69 3307 1455 20996 9075 20884 11998 6191 17115 
25184 16062 10395 11410 16966 294 23815 24252 17762 
377 364 20408 6005 13456 18132 9547 17462 4613 
10752 25395 15524 6927 18962 5030 21187 9445 25461 
15136 5919 19128 24812 5855 13882 591 7557 14710 
3120 6874 23718 3641 24647 22887 21177 5862 1018 
9529 13482 8080 1052 12913 23319 8147 10956 10698 
7203 4212 17062 24654 21433 3564 14286 22750 2698 
24480 16136 2208 19069 9460 10341 18385 14316 19740 
3017 10032 7077 24172 7956 22079 15975 15761 22138 
22695 5770 2281 14742 18933 20947 13734 3821 18555 
9869 5164 10094 18224 21291 17703 5311 6897 17300 
9450 18289 13706 16563 2955 4296 307 17601 21523 
5765 11717 1040 8551 4543 19788 18786 11491 236 
1208 23286 13255 12812 14417 17553 10712 25339 22047 
10598 14700 22459 4579 20406 17079 10482 6894 8819 
2399 4227 17458 740 16655 10632 2574 9518 18762 
6039 11314 23360 16143 4661 15748 9154 12000 15787 
6521 17612 21989 2598 16112 4924 1680 11523 10248 
4395 10429 12271 24495 1507 5943 15839 8700 6934 
11560 14524 186 14714 22770 6494 17884 24207 571 
580 8335 12570 14430 20043 11910 20132 14188 2917 
20582 11642 15106 21393 2282 15807 19046 9113 14724 
12729 16031 24548 17821 21092 12330 665 8782 21215 
15451 6216 18516 7363 8304 3474 3934 5544 19423 
10340 2950 17752 3233 25087 14277 18748 11123 7247 
11920 19902 20074 25555 8714 9191 3631 7973 12701 
8993 2762 21472 3344 15479 258 18330 24706 17810 
4109 12390 4896 21842 1536 17101 16174 5170 16786 
12372 4648 9966 5044 23512 1696 11439 21034 519 
7084 11909 21720 22544 24338 1081 11892 12473 23426 
24726 12593 2025 17574 14261 16443 10845 24669 12882 
21761 10256 16613 6092 25419 15370 3391 2207 12833 
21751 19041 14538 15677 17125 3556 16806 18863 16248 
18242 21421 15976 20733 2995 22647 22303 15647 7815 
8736 1823 25566 3606 23735 1931 9177 2124 15311 
21407 24253 3737 11216 1646 6024 18611 17236 8669 
24358 4822 4097 11591 11383 13319 5543 11768 14541 
25155 10224 21619 15577 2734 15015 11022 24452 1144 
243 7715 24390 24464 19503 14313 4456 6656 11812 
16958 2532 21648 9939 11215 24502 16601 18528 12834 
15344 12971 55 17718 24952 10554 3614 23696 3907 
804 637 19768 54 13739 21157 3719 8931 15899 
21180 8487 4793 14318 6898 11145 16244 24681 23873 
5473 22384 9615 9860 11208 22727 18304 21496 12195 
7221 9855 2478 16108 25400 20220 886 20425 60 
21135 8986 9092 958 5986 23968 17474 20462 645 
24004 6741 12919 13341 3969 22153 3804 23665 22472 
7808 21405 5357 10091 6712 18409 10042 4426 24538 
8505 12243 11098 10041 1681 19027 6393 11124 25439 
13198 4170 5799 15288 24819 15714 24109 24025 2539 
983 14365 8676 14703 10087 20119 7619 1 12538 
20596 17552 20317 6142 20933 14464 4989 1676 3733 
13498 17916 4007 13851 16542 12475 6219 10381 25009 
16209 15473 8217 14221 17619 9845 3611 11486 17228 
12727 10387 5270 24049 4721 9960 22237 7404 18508 
3805 5936 8205 7089 22778 17727 10943 8982 24222 
22645 14302 18225 23705 17351 23342 12028 2797 18514 
16762 17926 13295 17857 12421 5778 23523 22617 8288 
3313 15238 13608 21139 14016 4804 227 10934 2517 
23997 10880 25381 2828 4344 18542 4897 1701 14056 
4312 22787 13427 21848 20231 3494 24445 23599 22310 
5821 10671 14628 4148 6066 1926 13017 23840 19075 
4905 17733 4329 2414 1692 2748 19622 1111 9889 
18995 18483 168 3695 6539 7145 17299 20723 10891 
14326 133 13337 14397 7730 19300 14813 11466 15931 
348 3663 11133 24373 9370 963 9502 19849 3321 
13530 1498 14856 16289 17725 12049 20049 24674 3853 
20248 10210 11440 12887 18530 17220 16339 793 16932 
13423 23222 6354 22623 207 19975 24442 979 12700 
23437 15682 16165 15786 9291 2570 4335 15897 659 
20818 15413 599 14659 86 183 17995 17853 8994 
1517 2906 18738 25451 13189 2132 16975 24998 16564 
15750 25244 5075 8450 8728 9204 15366 1564 18114 
2550 15 16117 25483 105 1936 12089 22404 213 
23679 25250 16349 5273 14872 9759 1655 750 18127 
11311 1331 8843 24693 19986 25330 22881 12449 4374 
24583 25354 10693 22080 19991 17618 20422 21666 15911 
17260 6554 22967 17047 20785 22024 18183 16283 19990 
6306 24560 3123 1369 15062 24007 3970 8756 23700 
25304 16121 15330 12597 10507 7809 21016 20296 18631 
17865 10366 11113 1425 16081 5868 13716 7842 12586 
18493 2474 6477 22611 15445 2669 16933 4583 22328 
10089 7796 3672 15359 2183 23767 4587 11108 15809 
11751 10290 21097 9526 8495 17946 2877 21213 19302 
5310 20967 4067 17492 2131 14943 20008 18997 2506 
24079 13257 14955 14103 15053 20051 14649 24880 10435 
6678 12600 13640 12748 4320 24386 22986 2242 4382 
20188 4524 14912 8984 587 22598 6637 11102 4365 
12876 21466 5216 1147 7417 244 18744 10398 6760 
15343 17939 12627 16876 21193 8663 8702 20276 14045 
8966 21547 1192 5698 10454 12092 9837 7369 15470 
8259 9453 24981 18010 3790 312 18560 14780 13137 
2755 18427 12990 830 16180 12795 5514 10766 21432 
17111 22777 3757 1683 11917 17562 10725 6343 10742 
20019 12238 17154 6473 1835 23887 23177 25283 2347 
19848 1442 21315 1410 14984 12434 13902 8626 4082 
10136 3305 15889 13842 12816 8460 13836 9552 13165 
2085 357 9675 8291 19033 23918 12997 10035 22062 
4714 6963 4934 1255 16043 8581 5519 13802 12705 
10817 4604 12524 24310 17433 23993 12613 21699 3679 
20458 1748 6346 21875 11099 7141 924 2497 1349 
733 5006 5205 15830 11255 24148 4106 24002 8486 
17409 17312 13010 24544 17892 6973 15064 19303 13720 
16137 19947 20292 5848 14625 1891 2867 10322 3799 
11741 23358 15676 1605 3601 7550 20964 15574 24014 
22187 21864 898 8410 11040 18594 21526 2994 4293 
23803 5883 24827 17043 11832 8187 22 9456 7704 
8904 2014 5756 15421 3413 22055 9316 7625 20036 
18160 5567 22893 23513 12501 8125 6937 24234 21353 
2401 7670 6316 7003 6976 1196 20715 3438 15756 
8779 4788 20595 9451 23413 10329 17466 4037 6321 
16179 21399 4551 3933 19623 13793 23558 2088 17653 
16499 857 1587 10423 15476 18736 24529 1383 24692 
15089 25268 4695 13079 3876 11069 8953 2167 22485 
12260 20951 18940 21269 2899 14595 25062 5031 13144 
18606 11370 1200 22672 3508 9087 15405 11341 20650 
23818 4482 14591 21178 1001 15545 16825 18357 21625 
11767 2081 11048 501 13838 19661 7562 25345 2280 
18429 25517 22084 4518 16868 2457 13637 8985 21423 
14035 15885 17294 17141 6538 3231 20481 19703 1463 
3730 15772 5593 14210 49 17708 4401 9372 14068 
14487 7311 5382 21584 24361 13073 314 675 6200 
21142 17071 5835 25399 19559 4492 11816 24824 24473 
5222 21108 7542 23585 24948 428 11412 2727 7590 
5084 12306 16030 10852 25092 12675 14794 7030 21843 
16291 23386 24587 15153 1271 13515 16856 990 1026 
1882 18177 7567 24644 17688 13215 6013 20765 6101 
10577 20814 7535 21862 3407 7430 8079 10378 15615 
3845 21877 7307 14117 4431 22391 13111 8635 21561 
7789 15979 9058 7582 1308 14530 12922 9375 14812 
11736 24723 18313 627 21512 18787 2181 5191 4828 
17020 6947 19625 13650 13677 2836 19298 5716 10978 
409 18372 17469 15711 2387 1939 15849 5907 17941 
10448 18390 19055 10169 14785 10898 10009 13271 17579 
4652 7822 15198 25178 8831 24193 22534 17506 7399 
20679 24937 219 5334 15907 15167 9109 2076 19994 
1715 3203 20883 4415 8407 20342 24160 18178 19225 
7267 6519 19817 3035 2090 11765 5505 13783 12178 
18533 504 4770 3948 6969 498 6377 20062 15939 
22279 4076 2269 22890 13090 1397 24255 1011 14178 
980 24815 8835 15423 24573 6263 23128 513 22244 
3592 539 14371 24658 22722 18601 13076 18266 3938 
23875 5 8081 25470 19811 16459 2004 20538 10211 
24536 18471 19515 17006 6548 24303 23139 137 10743 
514 14870 22724 6190 12984 19437 7528 17503 11448 
12881 13958 4366 9993 5847 25109 25495 2961 1974 
23292 3043 9393 22209 4556 16317 16091 20072 352 
10604 3866 1326 24613 14597 14648 21126 15284 3291 
20915 2415 14413 20271 8305 1735 451 15228 680 
23934 24213 21777 14348 4352 15463 1391 9531 13618 
9696 16836 11562 11837 19824 3560 5639 22020 25385 
17682 1043 20183 19260 22824 7258 9497 16931 13180 
10407 2439 13797 19188 4033 20176 3004 6311 6082 
14089 4845 6457 14829 23067 13065 21216 6486 20548 
15520 15377 22081 18011 894 18125 12536 23167 7655 
24964 14440 17383 17778 16832 19271 11260 24619 18263 
19230 25082 832 16255 6782 19615 6664 10635 19506 
24169 19208 14482 14270 2613 7761 13424 17478 18017 
24972 14150 22860 248 4416 21741 22759 7801 20766 
9537 427 10373 7802 24700 17701 11801 16623 19218 
12680 15967 20834 707 1380 16369 25070 9165 6294 
4607 10405 15865 10413 8840 9313 8512 11028 17571 
14717 1626 15369 16319 19285 4032 14127 5175 2505 
10117 22430 9417 4333 9186 24156 13657 13965 8645 
23641 9244 5081 6714 8750 11788 18488 15292 4005 
24020 2314 19757 22828 6939 14523 9761 10909 11716 