/*--------------------------------*- C++ -*----------------------------------*\
| =========                 |                                                 |
| \\      /  F ield         | OpenFOAM: The Open Source CFD Toolbox           |
|  \\    /   O peration     | Version:  4.1                                   |
|   \\  /    A nd           | Web:      www.OpenFOAM.org                      |
|    \\/     M anipulation  |                                                 |
\*---------------------------------------------------------------------------*/
FoamFile
{
    version     2.0;
    format      ascii;
    class       volScalarField;
    location    "0";
    object      nu;
}
// * * * * * * * * * * * * * * * * * * * * * * * * * * * * * * * * * * * * * //

dimensions      [0 2 -1 0 0 0 0];

internalField   nonuniform List<scalar> 
87615
(
2.1324821e-05
2.6275843e-05
3.1208398e-05
2.842201e-05
2.4898314e-05
2.3962393e-05
2.6181028e-05
3.1538832e-05
4.0131655e-05
5.6116119e-05
5.7935689e-05
2.1483713e-05
2.6263513e-05
3.0924868e-05
3.0694058e-05
2.8535125e-05
2.6982678e-05
2.7131518e-05
2.8932927e-05
3.3093e-05
4.1503736e-05
4.9992401e-05
2.2320629e-05
2.6364668e-05
2.8378232e-05
2.8940751e-05
3.0154588e-05
3.1151511e-05
3.2701033e-05
3.4654607e-05
3.6504889e-05
3.6656192e-05
3.7845224e-05
2.3068705e-05
2.6154364e-05
2.6419175e-05
2.7025768e-05
3.1749299e-05
3.6665492e-05
3.8807087e-05
3.8574194e-05
3.491414e-05
3.3411422e-05
3.6240066e-05
2.2371424e-05
2.4971903e-05
2.5750833e-05
2.6435107e-05
3.1662823e-05
3.4473689e-05
3.358227e-05
3.197226e-05
3.3268045e-05
3.7687977e-05
4.1419803e-05
2.078755e-05
2.3455549e-05
2.5962459e-05
2.6853305e-05
3.0456828e-05
3.2077149e-05
3.1513032e-05
3.1559151e-05
3.6874214e-05
4.8539811e-05
5.8186045e-05
1.9416474e-05
2.1989444e-05
2.6374036e-05
2.8954841e-05
3.0870623e-05
3.2920795e-05
3.3023735e-05
3.4176015e-05
4.0690743e-05
5.4201575e-05
5.3415638e-05
1.9055893e-05
2.0637425e-05
2.5606629e-05
3.2699241e-05
3.4364763e-05
3.6238802e-05
3.7025475e-05
3.8682853e-05
4.4639422e-05
5.6228975e-05
5.1404323e-05
1.9526649e-05
2.0369645e-05
2.3615668e-05
3.3355577e-05
4.3634831e-05
4.458442e-05
4.4850187e-05
4.6124804e-05
4.9815514e-05
5.2672954e-05
4.7582336e-05
2.0049996e-05
2.1200734e-05
2.3021424e-05
3.0069324e-05
4.8735217e-05
6.1530934e-05
5.7760404e-05
5.3665561e-05
5.1869246e-05
5.3289183e-05
5.2844038e-05
2.0311476e-05
2.2167662e-05
2.4011115e-05
2.8292581e-05
4.1801416e-05
6.432046e-05
6.5676848e-05
5.5276389e-05
4.9716021e-05
5.2816847e-05
7.1990003e-05
2.0478473e-05
2.2639932e-05
2.5285832e-05
2.8319654e-05
3.6684996e-05
5.3508866e-05
5.7890919e-05
5.1598551e-05
4.775342e-05
5.0511494e-05
5.5007485e-05
2.0654047e-05
2.2694446e-05
2.5665255e-05
2.8418543e-05
3.4067331e-05
4.5268369e-05
5.0594371e-05
4.8794685e-05
4.9000517e-05
5.2678985e-05
5.2558263e-05
2.0802718e-05
2.2734075e-05
2.547362e-05
2.7786952e-05
3.1890539e-05
4.0003778e-05
4.7206671e-05
5.023015e-05
5.4780835e-05
6.3241867e-05
6.6108303e-05
2.0727442e-05
2.2774404e-05
2.578735e-05
2.7500737e-05
3.0223957e-05
3.6610934e-05
4.4566109e-05
5.0818911e-05
5.7071829e-05
6.421738e-05
6.6674399e-05
2.026737e-05
2.2406921e-05
2.7146189e-05
2.850101e-05
2.9548395e-05
3.4637278e-05
4.3314841e-05
4.9702924e-05
5.1105809e-05
4.8562491e-05
4.4093985e-05
1.9798862e-05
2.1717932e-05
2.9440206e-05
3.1189934e-05
2.9744559e-05
3.2715249e-05
4.2224805e-05
5.0018076e-05
4.801093e-05
4.3921331e-05
4.0255582e-05
1.9989413e-05
2.1284904e-05
2.9754194e-05
3.532386e-05
3.1585199e-05
3.1398658e-05
3.8359328e-05
5.628874e-05
5.0620395e-05
4.3132195e-05
4.126719e-05
2.0904406e-05
2.1461347e-05
2.7245111e-05
3.5854098e-05
3.5125596e-05
3.2118568e-05
3.4397759e-05
4.6765229e-05
6.5642899e-05
4.7018257e-05
4.1076627e-05
2.1809755e-05
2.1784283e-05
2.5207369e-05
3.2820657e-05
3.8150971e-05
3.5027394e-05
3.3343613e-05
3.660972e-05
4.7068829e-05
5.4515114e-05
4.2132413e-05
2.2104568e-05
2.1626103e-05
2.4093011e-05
3.1470306e-05
4.0219785e-05
4.0979651e-05
3.6738077e-05
3.5032031e-05
3.6461944e-05
4.0671992e-05
4.575463e-05
2.2108201e-05
2.1175434e-05
2.3257772e-05
3.1217311e-05
4.1885181e-05
4.8354228e-05
4.7404846e-05
4.199224e-05
3.8279434e-05
3.6968869e-05
3.8207763e-05
2.2340442e-05
2.095929e-05
2.2378763e-05
3.0641735e-05
4.4724721e-05
5.4325658e-05
6.0504212e-05
5.7944761e-05
4.9545224e-05
4.2832138e-05
3.8976625e-05
2.2859607e-05
2.1340214e-05
2.183904e-05
2.8263798e-05
4.3922939e-05
6.5832692e-05
6.5584602e-05
5.5121982e-05
4.7728392e-05
4.4957697e-05
4.3092862e-05
2.3389578e-05
2.2275256e-05
2.1751392e-05
2.5895502e-05
3.851757e-05
6.3083068e-05
6.5863465e-05
5.1458621e-05
4.2751044e-05
3.9511975e-05
4.1573812e-05
2.3753068e-05
2.3312868e-05
2.2021034e-05
2.4498581e-05
3.4590805e-05
5.5960223e-05
6.8617801e-05
5.3061794e-05
4.2815123e-05
3.8155896e-05
3.7900011e-05
2.39692e-05
2.3987148e-05
2.2584834e-05
2.4009237e-05
3.1591624e-05
4.920141e-05
7.8514791e-05
6.0934287e-05
4.7586596e-05
4.1004442e-05
3.8110257e-05
2.4114238e-05
2.4248351e-05
2.3043456e-05
2.4087017e-05
3.0261592e-05
4.4237154e-05
7.2099822e-05
7.0594662e-05
5.5615463e-05
4.7453855e-05
4.2860659e-05
2.4271022e-05
2.4495402e-05
2.3226734e-05
2.4051078e-05
3.0061527e-05
4.3542888e-05
6.3971947e-05
6.5497958e-05
5.7547079e-05
5.2138959e-05
4.9035005e-05
2.4418278e-05
2.5002045e-05
2.3661692e-05
2.3758843e-05
2.9011544e-05
4.3191181e-05
6.4703112e-05
6.4196607e-05
5.7521219e-05
5.3307014e-05
5.3605426e-05
2.4413299e-05
2.5475949e-05
2.4593755e-05
2.3809326e-05
2.7394867e-05
3.9146171e-05
5.9422543e-05
6.6141651e-05
6.0328452e-05
5.4180624e-05
5.571882e-05
2.4208344e-05
2.560132e-05
2.5556774e-05
2.4341419e-05
2.6379865e-05
3.4974e-05
4.9884847e-05
6.1001133e-05
6.3559556e-05
5.6171183e-05
5.3820884e-05
2.3917145e-05
2.5516326e-05
2.6191898e-05
2.5161156e-05
2.6046407e-05
3.2099082e-05
4.3750687e-05
5.2715199e-05
5.7944568e-05
6.0714193e-05
5.7628456e-05
2.3661297e-05
2.5422394e-05
2.6488068e-05
2.6013325e-05
2.6331538e-05
3.044418e-05
3.9533994e-05
4.8584672e-05
5.2116441e-05
5.544774e-05
6.1758711e-05
2.3469498e-05
2.5387092e-05
2.6672597e-05
2.6598633e-05
2.6893827e-05
2.9933202e-05
3.7025285e-05
4.6291262e-05
5.1089501e-05
5.2621506e-05
5.7875158e-05
2.3310967e-05
2.5346935e-05
2.6919918e-05
2.7026147e-05
2.7324295e-05
2.9884319e-05
3.575742e-05
4.4408587e-05
5.1273171e-05
5.4446384e-05
5.7813426e-05
2.3188337e-05
2.5284441e-05
2.7158251e-05
2.7549744e-05
2.7782207e-05
3.0082731e-05
3.5081112e-05
4.2127806e-05
4.9525188e-05
5.5028222e-05
5.7916795e-05
2.3080026e-05
2.5244856e-05
2.7230944e-05
2.7900032e-05
2.8169043e-05
3.064088e-05
3.5798872e-05
4.1280431e-05
4.7002822e-05
5.2949403e-05
5.7287522e-05
2.2941546e-05
2.5340689e-05
2.7470346e-05
2.8076289e-05
2.8040678e-05
3.0348878e-05
3.6793674e-05
4.3855188e-05
4.6820236e-05
4.9121808e-05
5.511111e-05
2.2711182e-05
2.5374236e-05
2.8080349e-05
2.8806168e-05
2.8077975e-05
2.9049086e-05
3.4835568e-05
4.6053409e-05
5.2371184e-05
5.0505997e-05
5.3115208e-05
2.2483454e-05
2.5172545e-05
2.8494243e-05
3.0170317e-05
2.9170499e-05
2.8375647e-05
3.1355347e-05
4.0892844e-05
5.4160161e-05
5.9367158e-05
5.9711389e-05
2.2347034e-05
2.4977535e-05
2.8300839e-05
3.1093386e-05
3.1162702e-05
2.934959e-05
2.9479195e-05
3.4226951e-05
4.5432427e-05
5.7169521e-05
6.3305972e-05
2.2237363e-05
2.5061575e-05
2.8207239e-05
3.1065408e-05
3.2709005e-05
3.1701554e-05
3.0152766e-05
3.1131823e-05
3.620906e-05
4.6513074e-05
5.463081e-05
2.202444e-05
2.5142585e-05
2.8720546e-05
3.1303882e-05
3.3337025e-05
3.4087785e-05
3.2910962e-05
3.1872155e-05
3.2867722e-05
3.669035e-05
4.5275534e-05
2.1802537e-05
2.4971266e-05
2.9280226e-05
3.2350398e-05
3.41144e-05
3.5651412e-05
3.6165401e-05
3.5357109e-05
3.4435037e-05
3.4631032e-05
3.8357112e-05
2.1682903e-05
2.4750146e-05
2.9339364e-05
3.349759e-05
3.5429654e-05
3.6820723e-05
3.8409078e-05
3.9272439e-05
3.8926636e-05
3.7839011e-05
3.8174939e-05
2.1626781e-05
2.4635304e-05
2.9186694e-05
3.4120209e-05
3.7019032e-05
3.8147175e-05
3.95096e-05
4.1346695e-05
4.2733892e-05
4.3140239e-05
4.224931e-05
2.1525553e-05
2.4420046e-05
2.9017485e-05
3.4390326e-05
3.864818e-05
4.022219e-05
4.0686076e-05
4.1729754e-05
4.3486588e-05
4.5815398e-05
4.6891201e-05
2.1451602e-05
2.4169496e-05
2.8677082e-05
3.4038618e-05
3.9126833e-05
4.2224601e-05
4.2790141e-05
4.2549749e-05
4.2892778e-05
4.4509989e-05
4.6766275e-05
2.1423095e-05
2.4132939e-05
2.8583622e-05
3.3352559e-05
3.7812395e-05
4.1701997e-05
4.391032e-05
4.4049547e-05
4.3331231e-05
4.3089536e-05
4.3210822e-05
2.1352891e-05
2.41087e-05
2.8885165e-05
3.3677549e-05
3.6960111e-05
3.9797195e-05
4.2619356e-05
4.4552954e-05
4.476156e-05
4.3823054e-05
4.1543237e-05
2.1234368e-05
2.3837711e-05
2.8955958e-05
3.5028437e-05
3.8150488e-05
3.9256846e-05
4.065452e-05
4.2930052e-05
4.557064e-05
4.6791365e-05
4.402974e-05
2.1134303e-05
2.3564407e-05
2.8685018e-05
3.5706446e-05
4.0284622e-05
4.0883045e-05
4.0483694e-05
4.094725e-05
4.2970701e-05
4.6718347e-05
5.0062311e-05
2.105917e-05
2.3354426e-05
2.836101e-05
3.5442324e-05
4.1193313e-05
4.3157244e-05
4.2586545e-05
4.1551111e-05
4.1366791e-05
4.3025095e-05
4.9836194e-05
2.1081165e-05
2.3095815e-05
2.7736368e-05
3.5168534e-05
4.1473812e-05
4.4224994e-05
4.4599861e-05
4.3753448e-05
4.2668496e-05
4.2573694e-05
4.7744684e-05
2.1148876e-05
2.3025538e-05
2.7194513e-05
3.446868e-05
4.148192e-05
4.4187139e-05
4.4632894e-05
4.4411347e-05
4.3855068e-05
4.3645094e-05
4.7763117e-05
2.1103397e-05
2.3163734e-05
2.7470863e-05
3.3939593e-05
4.0733077e-05
4.3655207e-05
4.3879385e-05
4.3499754e-05
4.3059896e-05
4.2837874e-05
4.5723403e-05
2.1017199e-05
2.3112735e-05
2.786699e-05
3.454884e-05
4.0818198e-05
4.3794738e-05
4.4248761e-05
4.3841572e-05
4.32067e-05
4.2564203e-05
4.3468643e-05
2.1049362e-05
2.2900506e-05
2.7470354e-05
3.5219321e-05
4.2001188e-05
4.4475135e-05
4.4972759e-05
4.501164e-05
4.476762e-05
4.4264869e-05
4.4757856e-05
2.10935e-05
2.2796494e-05
2.6867849e-05
3.4967599e-05
4.316069e-05
4.4995711e-05
4.4837298e-05
4.5082736e-05
4.5351468e-05
4.5292179e-05
4.6448788e-05
2.0998243e-05
2.2777689e-05
2.6847019e-05
3.4597296e-05
4.376842e-05
4.5755917e-05
4.4716637e-05
4.4597942e-05
4.5040224e-05
4.5184914e-05
4.643531e-05
2.0768171e-05
2.2633952e-05
2.7257932e-05
3.4995295e-05
4.4702409e-05
4.7692689e-05
4.5994778e-05
4.4978862e-05
4.5063779e-05
4.5087717e-05
4.6045714e-05
2.0658035e-05
2.241236e-05
2.7251435e-05
3.5030361e-05
4.5211824e-05
4.9952152e-05
4.8719189e-05
4.6999277e-05
4.6253289e-05
4.5787439e-05
4.6293368e-05
2.0787495e-05
2.2196758e-05
2.6484032e-05
3.4374558e-05
4.4765121e-05
5.037794e-05
4.9955946e-05
4.8872964e-05
4.8379148e-05
4.7911845e-05
4.8346085e-05
2.1026676e-05
2.1942326e-05
2.5508064e-05
3.4426437e-05
4.5456495e-05
5.0445176e-05
4.9114715e-05
4.7765566e-05
4.7968478e-05
4.8879273e-05
5.1664289e-05
2.1191451e-05
2.1844029e-05
2.4742805e-05
3.4176494e-05
4.9024326e-05
5.3613051e-05
4.9688871e-05
4.6896532e-05
4.6041593e-05
4.6415511e-05
5.0260765e-05
2.119915e-05
2.2150396e-05
2.4570245e-05
3.2143698e-05
4.831288e-05
5.8184848e-05
5.4442871e-05
5.0282854e-05
4.654125e-05
4.4311229e-05
4.6322885e-05
2.0998058e-05
2.2438638e-05
2.4938087e-05
3.069761e-05
4.4337676e-05
5.7709996e-05
5.8741026e-05
5.664944e-05
5.0932994e-05
4.6125581e-05
4.569934e-05
2.0846273e-05
2.2348954e-05
2.5121908e-05
3.0333726e-05
4.2008741e-05
5.6734057e-05
5.9873371e-05
6.0074393e-05
5.7245169e-05
5.166142e-05
4.9001665e-05
2.0941637e-05
2.2085496e-05
2.4675623e-05
3.0002823e-05
4.0635216e-05
5.7681899e-05
6.1649155e-05
5.9067731e-05
5.9206175e-05
5.8100397e-05
5.4090892e-05
2.1238721e-05
2.2010023e-05
2.3975369e-05
2.9009516e-05
3.9873448e-05
5.977627e-05
6.506671e-05
5.6833784e-05
5.5391839e-05
5.9824564e-05
5.961479e-05
2.1471182e-05
2.2241486e-05
2.3651674e-05
2.7858139e-05
3.8750318e-05
6.4614732e-05
6.7893581e-05
5.523436e-05
5.2544535e-05
5.5979673e-05
5.8947403e-05
2.144797e-05
2.2711896e-05
2.3863108e-05
2.6980995e-05
3.558911e-05
5.8484206e-05
6.1989421e-05
5.3708469e-05
5.3625081e-05
5.7400482e-05
5.845282e-05
2.1225093e-05
2.3065283e-05
2.4340502e-05
2.6785959e-05
3.2750298e-05
4.7237946e-05
5.8020191e-05
5.2607422e-05
5.3010523e-05
5.8871238e-05
6.4847495e-05
2.0868303e-05
2.3094778e-05
2.4740479e-05
2.7222271e-05
3.1764753e-05
4.0565411e-05
5.67231e-05
6.0196731e-05
5.6348172e-05
5.6925551e-05
6.1050019e-05
2.0333831e-05
2.2978067e-05
2.5318867e-05
2.7587662e-05
3.2246871e-05
3.8916645e-05
5.0262091e-05
7.0317193e-05
7.8250596e-05
7.2205298e-05
6.1979178e-05
1.9768954e-05
2.2866868e-05
2.6391534e-05
2.7278534e-05
3.2154251e-05
4.0662411e-05
5.1036391e-05
6.1475477e-05
6.2530526e-05
5.5805447e-05
4.6537375e-05
1.9378781e-05
2.2248912e-05
2.7823198e-05
2.8170369e-05
3.1128142e-05
3.9379883e-05
5.1777305e-05
5.8979011e-05
5.633229e-05
5.1639975e-05
4.6551827e-05
1.9500882e-05
2.0844969e-05
2.7035124e-05
3.3411368e-05
3.2788401e-05
3.7222877e-05
4.6547992e-05
5.7146501e-05
6.2031177e-05
6.0693788e-05
5.5282235e-05
2.0213281e-05
2.0113906e-05
2.3712709e-05
3.6236264e-05
4.0111556e-05
4.1415815e-05
4.7126064e-05
5.7762422e-05
7.122046e-05
7.2660185e-05
5.4633559e-05
2.1024913e-05
2.1257194e-05
2.1787262e-05
2.7545948e-05
3.8913508e-05
5.0289818e-05
6.3552837e-05
9.0652583e-05
8.3086912e-05
5.882361e-05
4.7999763e-05
2.1285602e-05
2.3503519e-05
2.259753e-05
2.3851279e-05
3.0458295e-05
4.189738e-05
6.2371985e-05
7.4817317e-05
6.3583016e-05
5.6670422e-05
5.2340389e-05
2.0952032e-05
2.4425874e-05
2.4677483e-05
2.4093518e-05
2.7587845e-05
3.4507704e-05
4.4956195e-05
5.7427598e-05
6.0989814e-05
5.7281037e-05
5.4331653e-05
2.0277038e-05
2.3841923e-05
2.5419958e-05
2.5264234e-05
2.7752263e-05
3.3309639e-05
3.9690185e-05
4.7298753e-05
5.7224599e-05
7.7022373e-05
6.6726889e-05
1.9434715e-05
2.3485168e-05
2.5856918e-05
2.5438826e-05
2.8216953e-05
3.5521053e-05
4.3897378e-05
5.2715005e-05
5.9859387e-05
4.6344552e-05
3.7531417e-05
1.8419826e-05
2.298951e-05
2.9135022e-05
2.7561032e-05
2.8571062e-05
3.5746663e-05
4.9379449e-05
5.4926624e-05
4.431614e-05
3.7678133e-05
3.4924339e-05
1.7866235e-05
2.1057371e-05
2.9665604e-05
3.6835058e-05
3.7039115e-05
4.0240863e-05
4.7748131e-05
4.72858e-05
4.0975739e-05
3.785034e-05
3.6894616e-05
1.8111798e-05
2.0156414e-05
2.5550006e-05
3.8103214e-05
5.7921752e-05
4.205701e-05
3.8414291e-05
3.7745366e-05
3.7653122e-05
3.7345911e-05
3.6207188e-05
1.8262739e-05
2.0638789e-05
2.7041305e-05
3.2045114e-05
4.0762203e-05
5.9640352e-05
4.6152477e-05
4.1694542e-05
3.9973999e-05
4.0375787e-05
4.0270104e-05
1.8242916e-05
2.0310912e-05
3.1115103e-05
5.0528777e-05
3.3604432e-05
3.5764456e-05
5.3549845e-05
6.0944921e-05
7.3755342e-05
6.3804297e-05
5.5870632e-05
1.8834851e-05
1.9737344e-05
2.6156505e-05
4.0132735e-05
5.0086291e-05
3.6508979e-05
3.7939474e-05
4.829129e-05
5.0507287e-05
5.1246629e-05
6.1737091e-05
1.9666861e-05
2.0384374e-05
2.2845161e-05
3.3837375e-05
3.8890603e-05
4.3463872e-05
4.249615e-05
4.17226e-05
4.881951e-05
5.9287064e-05
5.8683678e-05
1.9809041e-05
2.2165729e-05
2.3029841e-05
2.6291873e-05
3.5976672e-05
3.9887499e-05
4.1673182e-05
4.438286e-05
4.3896031e-05
4.572374e-05
4.8783158e-05
1.9130122e-05
2.3098798e-05
2.8054198e-05
2.6007365e-05
2.804735e-05
3.4732176e-05
4.3081011e-05
4.5501187e-05
4.6818812e-05
5.1110738e-05
5.8141876e-05
1.8670069e-05
2.0913701e-05
2.8294191e-05
3.294589e-05
3.0457559e-05
3.0377922e-05
3.3825409e-05
3.9237909e-05
4.4964418e-05
4.8018485e-05
4.9334493e-05
1.9212951e-05
1.9673039e-05
2.2871034e-05
2.9300778e-05
3.2870087e-05
3.8513623e-05
3.3086135e-05
3.2350292e-05
3.4023982e-05
3.6297117e-05
3.6160428e-05
2.0306423e-05
2.105647e-05
2.1022174e-05
2.3876186e-05
3.1774916e-05
3.5444677e-05
3.8177477e-05
3.3370363e-05
3.2158205e-05
3.2523858e-05
3.2148452e-05
2.1122124e-05
2.3723226e-05
2.3298109e-05
2.1821924e-05
2.4418191e-05
3.4636346e-05
4.272193e-05
3.8801302e-05
3.540921e-05
3.4733704e-05
3.4851286e-05
2.1388446e-05
2.564954e-05
2.7715029e-05
2.4086306e-05
2.2522652e-05
2.4715049e-05
3.2237033e-05
4.3897089e-05
4.2710131e-05
4.219954e-05
4.2312736e-05
1.9782184e-05
2.4311076e-05
2.7072389e-05
2.5210084e-05
2.4602923e-05
2.731859e-05
3.4980697e-05
4.4787859e-05
4.2962835e-05
4.3887285e-05
5.4829987e-05
1.9645977e-05
2.5527437e-05
3.1442267e-05
3.0183313e-05
2.7511928e-05
2.6879785e-05
2.8579296e-05
3.4495455e-05
4.5629224e-05
4.8031364e-05
4.8792558e-05
1.9659088e-05
2.58562e-05
3.1771961e-05
3.3032244e-05
3.164019e-05
3.1362985e-05
3.2443278e-05
3.3590921e-05
3.4760734e-05
3.5721362e-05
4.1006319e-05
1.9945693e-05
2.6055126e-05
3.0393436e-05
3.2023335e-05
3.341286e-05
3.6953026e-05
3.6605084e-05
3.3121138e-05
3.0819918e-05
3.2920835e-05
4.3529055e-05
1.9785717e-05
2.5589852e-05
3.0790905e-05
3.1746845e-05
3.417676e-05
3.565534e-05
3.257498e-05
3.0801598e-05
3.3452495e-05
3.9681147e-05
4.6169125e-05
1.8945854e-05
2.4214895e-05
3.1502412e-05
3.2910981e-05
3.3779445e-05
3.339893e-05
3.0792552e-05
3.1758798e-05
4.1073882e-05
5.2960898e-05
5.4950538e-05
1.8119842e-05
2.2482873e-05
3.1630666e-05
3.5672729e-05
3.5687035e-05
3.4514984e-05
3.2413774e-05
3.4356721e-05
4.7467327e-05
8.0606694e-05
7.8741437e-05
1.7935984e-05
2.1157669e-05
3.0532577e-05
3.8295504e-05
4.1068024e-05
3.9964331e-05
3.7220191e-05
3.8435082e-05
4.8538836e-05
6.566529e-05
5.9758469e-05
1.8368351e-05
2.0822054e-05
2.7892159e-05
3.9459621e-05
4.459496e-05
4.6384322e-05
4.4945836e-05
4.4649702e-05
4.9225905e-05
5.4570325e-05
5.1495112e-05
1.8840874e-05
2.1108828e-05
2.7327769e-05
3.9192508e-05
4.4796253e-05
4.7880013e-05
4.9599681e-05
4.9538209e-05
5.048021e-05
5.4668431e-05
5.8877963e-05
1.9088463e-05
2.1400032e-05
2.7657903e-05
4.1501758e-05
4.9076299e-05
5.1427823e-05
5.2039372e-05
5.0894043e-05
5.0311314e-05
5.4353632e-05
6.8906665e-05
1.9281166e-05
2.1568011e-05
2.7304505e-05
4.0854514e-05
5.827931e-05
5.8480618e-05
5.3643364e-05
5.1168606e-05
5.145224e-05
5.4900817e-05
5.7756625e-05
1.9401469e-05
2.1651768e-05
2.6504316e-05
3.7090391e-05
5.5798411e-05
5.9077691e-05
5.2280963e-05
5.0531675e-05
5.3004445e-05
5.6438161e-05
5.359927e-05
1.9371036e-05
2.1627735e-05
2.569374e-05
3.3541196e-05
4.7977625e-05
5.7177589e-05
5.3784624e-05
5.269981e-05
5.6100161e-05
6.048337e-05
5.9143455e-05
1.9283326e-05
2.1535685e-05
2.5107182e-05
3.0914743e-05
4.2295438e-05
5.6564304e-05
6.1309085e-05
6.3095719e-05
6.9990411e-05
8.1396641e-05
8.5657227e-05
1.9192031e-05
2.1441527e-05
2.5118918e-05
2.9634503e-05
3.7955827e-05
5.3456877e-05
6.8608705e-05
7.2638647e-05
6.2730817e-05
5.366825e-05
4.8240857e-05
1.8994868e-05
2.1456903e-05
2.6575351e-05
2.9899267e-05
3.4530101e-05
4.6269659e-05
5.8360752e-05
5.599282e-05
5.052408e-05
4.5717243e-05
4.1391505e-05
1.8708926e-05
2.1497685e-05
3.04159e-05
3.1848727e-05
3.2767563e-05
3.8622884e-05
5.3199592e-05
5.3575167e-05
4.6390354e-05
4.3378869e-05
4.2773844e-05
1.8749447e-05
2.1311586e-05
3.3248316e-05
3.5977533e-05
3.3757608e-05
3.5421285e-05
4.4163613e-05
6.739744e-05
5.319259e-05
4.5126676e-05
4.5335651e-05
1.9330262e-05
2.0911509e-05
2.9983905e-05
4.095727e-05
3.8026986e-05
3.6020895e-05
3.8621406e-05
4.8267809e-05
6.3929513e-05
5.0015767e-05
4.2437987e-05
2.0020317e-05
2.0534074e-05
2.6630969e-05
4.0721977e-05
4.5755909e-05
4.0383642e-05
3.8270223e-05
3.9543063e-05
4.3849783e-05
4.858702e-05
4.69076e-05
2.0493616e-05
2.0471758e-05
2.4842883e-05
3.758332e-05
4.587694e-05
4.8506161e-05
4.4913165e-05
4.1512743e-05
3.9850262e-05
3.9781179e-05
4.1079668e-05
2.0874332e-05
2.0654362e-05
2.3850077e-05
3.4663507e-05
4.611322e-05
5.0199248e-05
5.5049553e-05
5.3287821e-05
4.6308545e-05
4.1182599e-05
3.877106e-05
2.1262994e-05
2.0674817e-05
2.313199e-05
3.3580447e-05
5.1787865e-05
5.703493e-05
5.8455563e-05
5.7971479e-05
5.1555141e-05
4.4797557e-05
4.0920534e-05
2.1711652e-05
2.0622971e-05
2.2491579e-05
3.277309e-05
5.4817942e-05
7.0423646e-05
6.3755737e-05
5.5717939e-05
4.830357e-05
4.3017563e-05
4.0340848e-05
2.2229015e-05
2.1021568e-05
2.1976408e-05
3.0109566e-05
5.2877364e-05
7.8078698e-05
7.0748553e-05
5.8339978e-05
4.8753653e-05
4.2811673e-05
3.9728135e-05
2.2682827e-05
2.1790398e-05
2.1969573e-05
2.7565731e-05
4.6376633e-05
9.6184623e-05
9.493315e-05
6.7831951e-05
5.4153717e-05
4.6741998e-05
4.2710301e-05
2.2986218e-05
2.2376127e-05
2.2335568e-05
2.6666425e-05
4.1135221e-05
8.7041307e-05
0.00010817223
7.3781021e-05
6.0206716e-05
5.289063e-05
4.9660746e-05
2.3253166e-05
2.2781644e-05
2.2452597e-05
2.6422369e-05
4.1175249e-05
7.5018747e-05
7.7709034e-05
6.811264e-05
6.0945776e-05
5.6498309e-05
5.6294339e-05
2.3520255e-05
2.3381618e-05
2.2430752e-05
2.5658507e-05
4.1301882e-05
7.5692866e-05
7.331138e-05
6.7931246e-05
6.1253761e-05
5.7173109e-05
6.0859184e-05
2.3621099e-05
2.4057842e-05
2.2846542e-05
2.4846649e-05
3.6860951e-05
6.6124485e-05
7.1138349e-05
7.2669854e-05
6.3460147e-05
5.614547e-05
6.0272666e-05
2.350654e-05
2.4473368e-05
2.3641149e-05
2.4448652e-05
3.2441446e-05
5.4458547e-05
6.2938136e-05
6.8053649e-05
6.635933e-05
5.4662621e-05
5.3259287e-05
2.3328519e-05
2.4668768e-05
2.4492312e-05
2.4462849e-05
2.9535543e-05
4.6093051e-05
5.780264e-05
5.7313542e-05
5.9187848e-05
5.8503448e-05
5.4245248e-05
2.3213985e-05
2.4804278e-05
2.5185074e-05
2.4880772e-05
2.8027496e-05
3.9427097e-05
5.5124683e-05
5.4965426e-05
5.1438725e-05
5.3700567e-05
6.1188132e-05
2.3137872e-05
2.4941513e-05
2.5713551e-05
2.5427942e-05
2.7623961e-05
3.5840987e-05
5.0553573e-05
5.6492354e-05
5.1685369e-05
4.8963913e-05
5.4639984e-05
2.3045661e-05
2.5038631e-05
2.6255317e-05
2.5958843e-05
2.7573094e-05
3.4156035e-05
4.6277128e-05
5.6569146e-05
5.5935438e-05
5.114306e-05
5.2154386e-05
2.293209e-05
2.5026057e-05
2.6793237e-05
2.6724106e-05
2.7726599e-05
3.2988794e-05
4.3046157e-05
5.305881e-05
5.7183847e-05
5.7042719e-05
5.8007503e-05
2.2827858e-05
2.4906877e-05
2.698959e-05
2.7517364e-05
2.8212116e-05
3.2574391e-05
4.1166817e-05
4.951782e-05
5.4545537e-05
5.7769045e-05
6.2528533e-05
2.2759981e-05
2.4897962e-05
2.7008809e-05
2.7933555e-05
2.8475606e-05
3.240611e-05
4.0962857e-05
4.7275886e-05
4.9568742e-05
5.1954679e-05
5.8211201e-05
2.264393e-05
2.4976812e-05
2.7250324e-05
2.8281939e-05
2.8472193e-05
3.139957e-05
4.010034e-05
4.9062922e-05
4.8421329e-05
4.6628382e-05
4.9935537e-05
2.2450129e-05
2.4941434e-05
2.7620317e-05
2.9007791e-05
2.8855145e-05
3.0114855e-05
3.6622977e-05
4.8879027e-05
5.3864305e-05
4.9193878e-05
4.8411006e-05
2.2271547e-05
2.4781666e-05
2.7639707e-05
2.9804122e-05
3.0059594e-05
2.9826485e-05
3.3077814e-05
4.264013e-05
5.4602073e-05
5.866516e-05
5.7982322e-05
2.2197947e-05
2.4809506e-05
2.7461604e-05
2.9869168e-05
3.1396773e-05
3.1102383e-05
3.1732807e-05
3.640803e-05
4.6635762e-05
5.7788659e-05
6.2221661e-05
2.2090019e-05
2.5005906e-05
2.776449e-05
2.9687199e-05
3.1768794e-05
3.3115933e-05
3.3095464e-05
3.434366e-05
3.8747137e-05
4.7435429e-05
5.6653175e-05
2.1897323e-05
2.5044583e-05
2.853169e-05
3.0317949e-05
3.1804764e-05
3.4209702e-05
3.5984769e-05
3.6317385e-05
3.7004478e-05
3.9470136e-05
4.5369818e-05
2.1746791e-05
2.4889378e-05
2.9058948e-05
3.1710136e-05
3.2642212e-05
3.4545661e-05
3.780035e-05
4.0092104e-05
4.012791e-05
3.9367156e-05
4.0130378e-05
2.1705952e-05
2.4794892e-05
2.9118254e-05
3.299728e-05
3.4364351e-05
3.5330064e-05
3.8176136e-05
4.1946246e-05
4.3722659e-05
4.3321347e-05
4.1700837e-05
2.1645605e-05
2.4700911e-05
2.9042898e-05
3.3729011e-05
3.6583761e-05
3.7348727e-05
3.8856442e-05
4.2228649e-05
4.5020677e-05
4.5812839e-05
4.4793938e-05
2.1530696e-05
2.4520046e-05
2.8888827e-05
3.3739577e-05
3.8101721e-05
4.0255884e-05
4.1106813e-05
4.2757441e-05
4.4776582e-05
4.5837128e-05
4.5582599e-05
2.1436097e-05
2.4450805e-05
2.8909867e-05
3.3250633e-05
3.7524715e-05
4.1238262e-05
4.3623208e-05
4.4956123e-05
4.543278e-05
4.488894e-05
4.3788284e-05
2.1359712e-05
2.441627e-05
2.923314e-05
3.3563152e-05
3.6780204e-05
3.9955423e-05
4.3227258e-05
4.6416194e-05
4.8321096e-05
4.7138784e-05
4.4103014e-05
2.1229217e-05
2.4149821e-05
2.9314872e-05
3.4947178e-05
3.7985786e-05
3.9708013e-05
4.1809496e-05
4.5041665e-05
4.9625602e-05
5.2310226e-05
4.9297878e-05
2.1059455e-05
2.3851813e-05
2.9085155e-05
3.5799969e-05
4.0366252e-05
4.138836e-05
4.15473e-05
4.2712471e-05
4.6138505e-05
5.2663049e-05
5.8492623e-05
2.0923633e-05
2.3674926e-05
2.8873646e-05
3.5448695e-05
4.1325386e-05
4.3854969e-05
4.3392581e-05
4.2403321e-05
4.2748283e-05
4.6216354e-05
5.7299709e-05
2.0883714e-05
2.3455071e-05
2.8456397e-05
3.5224662e-05
4.1257171e-05
4.5218913e-05
4.6280158e-05
4.5012833e-05
4.3435049e-05
4.3748499e-05
5.0045784e-05
2.0838922e-05
2.3271795e-05
2.8009783e-05
3.5042085e-05
4.1605936e-05
4.5758082e-05
4.7889153e-05
4.8043002e-05
4.6686647e-05
4.5698035e-05
4.8923686e-05
2.0660004e-05
2.3202572e-05
2.8264338e-05
3.483379e-05
4.1498537e-05
4.546808e-05
4.7366086e-05
4.8245743e-05
4.8094402e-05
4.7470527e-05
4.9417424e-05
2.0529943e-05
2.3041209e-05
2.8581145e-05
3.5245129e-05
4.1324848e-05
4.4970378e-05
4.6313792e-05
4.6727584e-05
4.6693928e-05
4.6386613e-05
4.7591825e-05
2.0605935e-05
2.2886628e-05
2.804575e-05
3.5507011e-05
4.1617417e-05
4.4934448e-05
4.6000456e-05
4.60922e-05
4.5860916e-05
4.5564009e-05
4.6016635e-05
2.0640769e-05
2.2846237e-05
2.7489175e-05
3.5295531e-05
4.2143499e-05
4.5048313e-05
4.575918e-05
4.5882281e-05
4.5819636e-05
4.5789416e-05
4.6476412e-05
2.0460605e-05
2.2690203e-05
2.7553035e-05
3.5869418e-05
4.3262713e-05
4.5167185e-05
4.4964189e-05
4.5012997e-05
4.5359547e-05
4.5864148e-05
4.7548237e-05
2.0224204e-05
2.2403629e-05
2.7797648e-05
3.7037074e-05
4.5753637e-05
4.648739e-05
4.4650714e-05
4.3844907e-05
4.4103213e-05
4.4897526e-05
4.7195374e-05
2.0121499e-05
2.2253513e-05
2.7800842e-05
3.6396014e-05
4.6622584e-05
4.909632e-05
4.6394094e-05
4.4205357e-05
4.3412786e-05
4.3482186e-05
4.460708e-05
2.0180522e-05
2.2163104e-05
2.7438329e-05
3.5095559e-05
4.4591535e-05
4.9305728e-05
4.7992323e-05
4.5628301e-05
4.4028389e-05
4.3286729e-05
4.2819057e-05
2.0359799e-05
2.1828379e-05
2.6679122e-05
3.5919355e-05
4.4396056e-05
4.8294061e-05
4.734772e-05
4.534101e-05
4.4118755e-05
4.3994675e-05
4.3765305e-05
2.0633431e-05
2.1539423e-05
2.5597411e-05
3.7366378e-05
4.902525e-05
4.9841444e-05
4.6748422e-05
4.4314794e-05
4.3629327e-05
4.4454151e-05
4.6333733e-05
2.0796722e-05
2.1737676e-05
2.5020186e-05
3.5209266e-05
5.3086872e-05
5.5233132e-05
4.9920674e-05
4.613626e-05
4.453435e-05
4.4392194e-05
4.7205724e-05
2.063462e-05
2.1930783e-05
2.5240809e-05
3.337449e-05
4.9662121e-05
5.793419e-05
5.6219363e-05
5.1756507e-05
4.7536871e-05
4.505561e-05
4.6069282e-05
2.0485426e-05
2.1797977e-05
2.546666e-05
3.3186374e-05
4.6985741e-05
5.7274754e-05
5.9435187e-05
5.864653e-05
5.2806434e-05
4.7906978e-05
4.6509103e-05
2.0622219e-05
2.161702e-05
2.509611e-05
3.2824536e-05
4.5888729e-05
5.9360905e-05
6.0823065e-05
6.2037789e-05
6.0498928e-05
5.4613401e-05
5.044311e-05
2.0908904e-05
2.1477915e-05
2.4340653e-05
3.2262038e-05
4.6833818e-05
6.4397035e-05
6.2960978e-05
5.7055434e-05
5.798482e-05
6.2495332e-05
5.8674669e-05
2.1029015e-05
2.1393347e-05
2.369361e-05
3.192331e-05
5.3102568e-05
7.6273757e-05
6.2923073e-05
5.2248221e-05
5.1146196e-05
5.6547378e-05
5.98429e-05
2.101765e-05
2.1706732e-05
2.3228249e-05
2.97684e-05
5.2573892e-05
7.3414288e-05
6.0678829e-05
5.3299757e-05
5.2538861e-05
5.4667284e-05
5.4769672e-05
2.0977172e-05
2.2427262e-05
2.3412546e-05
2.7285221e-05
4.0423351e-05
5.7725545e-05
5.2588872e-05
5.2259851e-05
5.6304889e-05
6.1458609e-05
6.1391447e-05
2.0783072e-05
2.2761641e-05
2.4234908e-05
2.6994048e-05
3.4540287e-05
5.2396836e-05
5.6577393e-05
5.2470696e-05
5.4024321e-05
6.0652482e-05
7.2507394e-05
2.0378363e-05
2.2487232e-05
2.5106926e-05
2.8015029e-05
3.3955162e-05
4.5488454e-05
7.0540707e-05
6.9874192e-05
6.2487332e-05
6.0037859e-05
5.9465231e-05
1.9976987e-05
2.2195028e-05
2.5814974e-05
2.8176019e-05
3.4852932e-05
4.6139804e-05
6.3137014e-05
7.6827547e-05
6.7105727e-05
5.7760469e-05
5.2240074e-05
1.9784159e-05
2.166057e-05
2.6572444e-05
2.8616596e-05
3.4000576e-05
4.5608715e-05
6.0815006e-05
6.6383791e-05
6.1331609e-05
5.4848957e-05
5.0889915e-05
2.0177781e-05
2.0498684e-05
2.5531008e-05
3.3411392e-05
3.4766785e-05
4.124958e-05
5.3073047e-05
6.5369372e-05
6.8307772e-05
6.1078131e-05
5.2642933e-05
2.1160117e-05
2.0065527e-05
2.2973797e-05
3.561534e-05
4.1978642e-05
4.3492626e-05
5.0524676e-05
6.2621188e-05
6.9736314e-05
6.0215833e-05
5.0172782e-05
2.201066e-05
2.1206133e-05
2.1712597e-05
2.8171364e-05
4.0388952e-05
5.4078548e-05
6.8026708e-05
8.8476916e-05
7.2486202e-05
5.6205808e-05
4.9789403e-05
2.2205991e-05
2.2857255e-05
2.1955911e-05
2.4659155e-05
3.2907855e-05
4.6621159e-05
6.3665931e-05
7.3174414e-05
6.7433891e-05
5.9861067e-05
5.5085464e-05
2.1839915e-05
2.3801794e-05
2.2777825e-05
2.3800088e-05
2.9854305e-05
3.9418988e-05
5.0952007e-05
5.7966763e-05
5.8929598e-05
5.6699992e-05
5.4084248e-05
2.097988e-05
2.3974629e-05
2.4014236e-05
2.4264233e-05
2.8740369e-05
3.6568132e-05
4.6336294e-05
5.9582111e-05
7.212607e-05
7.6700628e-05
6.7006558e-05
1.9996909e-05
2.3527482e-05
2.519641e-05
2.5532111e-05
2.9309568e-05
3.7924252e-05
4.7567287e-05
5.9251523e-05
6.0235618e-05
4.6787426e-05
4.0208986e-05
1.9162117e-05
2.3121386e-05
2.7126804e-05
2.693188e-05
3.0400763e-05
4.1462551e-05
5.8250967e-05
5.9256942e-05
4.6228163e-05
3.8528866e-05
3.4900272e-05
1.8562109e-05
2.208802e-05
2.8794205e-05
3.0517297e-05
3.2788772e-05
4.086107e-05
5.4852445e-05
4.8282315e-05
4.0734373e-05
3.7417414e-05
3.5705543e-05
1.8504123e-05
2.0843092e-05
2.6584954e-05
3.3966797e-05
4.235973e-05
4.2828037e-05
4.1997281e-05
4.1345301e-05
3.9396187e-05
3.8221745e-05
3.7898221e-05
1.8717251e-05
2.0659311e-05
2.6263552e-05
3.2818425e-05
4.1487288e-05
5.4859733e-05
4.8237571e-05
4.3962067e-05
4.3971747e-05
4.4582461e-05
4.3892308e-05
1.8831873e-05
2.0579811e-05
2.8586017e-05
4.1000396e-05
3.471091e-05
3.8948733e-05
4.7514881e-05
5.2952963e-05
5.3105091e-05
5.2441039e-05
5.4275869e-05
1.9253228e-05
2.021599e-05
2.5971106e-05
5.1895571e-05
4.7884344e-05
3.9689855e-05
4.6343758e-05
4.9923844e-05
5.2396903e-05
5.6224766e-05
6.4008792e-05
1.9848586e-05
2.0969333e-05
2.2877576e-05
3.6257696e-05
4.6997436e-05
5.1606562e-05
4.8751415e-05
6.1018843e-05