/*--------------------------------*- C++ -*----------------------------------*\
| =========                 |                                                 |
| \\      /  F ield         | OpenFOAM: The Open Source CFD Toolbox           |
|  \\    /   O peration     | Version:  4.1                                   |
|   \\  /    A nd           | Web:      www.OpenFOAM.org                      |
|    \\/     M anipulation  |                                                 |
\*---------------------------------------------------------------------------*/
FoamFile
{
    version     2.0;
    format      ascii;
    class       volScalarField;
    location    "0";
    object      p;
}
// * * * * * * * * * * * * * * * * * * * * * * * * * * * * * * * * * * * * * //

dimensions      [0 2 -2 0 0 0 0];

internalField   nonuniform List<scalar> 
87615
(
0.2369999
0.23690098
0.2369071
0.23768641
0.23841915
0.23798249
0.23660549
0.23466239
0.23240567
0.2295136
0.22684503
0.24083971
0.24151209
0.2414061
0.24173654
0.24220575
0.24221871
0.24136509
0.23980681
0.23765016
0.23508605
0.2322626
0.2324604
0.23356897
0.23274601
0.23079639
0.2293976
0.22861819
0.22823654
0.22752416
0.22630426
0.22532598
0.2243142
0.20864651
0.20880732
0.20653642
0.2022808
0.19896916
0.19731853
0.19667893
0.19730733
0.19982146
0.203763
0.20789929
0.19418716
0.19293829
0.18976056
0.18312785
0.17593053
0.17461186
0.17459283
0.17739656
0.18311843
0.18997922
0.19727737
0.20512369
0.20296673
0.20039309
0.19635978
0.19246957
0.19020206
0.18903846
0.19147107
0.19499466
0.19884274
0.20282287
0.22983756
0.22900454
0.22811367
0.22679638
0.22509464
0.22386119
0.22366597
0.22414989
0.22484897
0.22503969
0.22489001
0.24392724
0.24414492
0.2433632
0.24336843
0.24336662
0.24315928
0.24307114
0.24318348
0.24301063
0.24217572
0.24078315
0.2420018
0.2424379
0.24185069
0.24119576
0.24111391
0.24117015
0.24100572
0.24067369
0.24005176
0.2390193
0.2375757
0.23399091
0.23396216
0.23416213
0.23313101
0.23255065
0.23224042
0.2319077
0.23144964
0.23083406
0.23009437
0.22918544
0.22685756
0.22676563
0.22689094
0.22651085
0.22580601
0.22524455
0.22482912
0.22440472
0.22389234
0.22344175
0.22326727
0.22180585
0.22182823
0.22171053
0.22152969
0.220952
0.22034584
0.21980774
0.21928922
0.21858158
0.21725771
0.21748986
0.21996993
0.22002488
0.21984269
0.21973743
0.21942351
0.21910172
0.21880665
0.21834495
0.21755889
0.21652161
0.21584652
0.22063731
0.22085824
0.22097664
0.22114526
0.22121793
0.22128994
0.22140411
0.22148574
0.22136295
0.22099807
0.22065632
0.21989596
0.21992272
0.22013277
0.22059281
0.22107423
0.22133476
0.22164254
0.22207701
0.22256939
0.22304513
0.22351455
0.21697843
0.2166765
0.21669299
0.21693117
0.21725219
0.21744542
0.21760266
0.21782285
0.21827455
0.21886061
0.21953361
0.21586324
0.21529552
0.215189
0.21509983
0.2150689
0.2147473
0.21424372
0.21385994
0.21366801
0.2137592
0.21438891
0.2162611
0.21591353
0.21562432
0.21519509
0.21490832
0.21420417
0.21344324
0.21282623
0.21247902
0.21248154
0.21274202
0.21517659
0.21511219
0.21475005
0.21411734
0.21346686
0.21264292
0.21203302
0.21186563
0.21208191
0.21267852
0.21356542
0.21439495
0.2145948
0.21402402
0.21378225
0.21316793
0.21238647
0.21183621
0.21186025
0.21244292
0.21338147
0.21457117
0.21681155
0.2172126
0.21634228
0.21660385
0.21638897
0.21611639
0.21591061
0.21604374
0.21662233
0.21741376
0.21825905
0.22097575
0.22140338
0.22034472
0.22095036
0.22054793
0.22083997
0.22097089
0.22148294
0.22231025
0.22328473
0.22409469
0.224008
0.22432235
0.22377171
0.22289796
0.22185121
0.22117828
0.2211352
0.22167957
0.22288909
0.22442248
0.22594405
0.22443515
0.22446006
0.22463043
0.22315612
0.22124548
0.21955758
0.21835874
0.21771592
0.2180333
0.2190955
0.22048568
0.22332127
0.22321272
0.22376877
0.22250306
0.22073226
0.21883868
0.21710188
0.21568664
0.21466975
0.21436171
0.21473432
0.22119347
0.22116221
0.22150863
0.22093379
0.21991041
0.21863909
0.2174046
0.21628167
0.21530974
0.21455606
0.21383327
0.21841538
0.21841718
0.21852081
0.218526
0.21821933
0.21775495
0.21737098
0.21707634
0.21681382
0.21648344
0.21604367
0.21552415
0.21551526
0.2155199
0.21567652
0.21574203
0.21577978
0.21589938
0.21609675
0.21628605
0.21636664
0.21641524
0.21313402
0.21313542
0.2131425
0.21320293
0.21325487
0.21330486
0.21346513
0.21367673
0.21386011
0.21395792
0.21397136
0.21132217
0.21133813
0.21134843
0.21140662
0.21126505
0.21108668
0.21102818
0.21101837
0.21097955
0.21092837
0.21074281
0.21019898
0.21021684
0.21017273
0.21024909
0.21009001
0.2098642
0.20966172
0.20951378
0.20935984
0.20925008
0.20901368
0.2106845
0.21065505
0.21064691
0.21069628
0.21067411
0.210544
0.21032367
0.21009551
0.20982868
0.20963118
0.20953185
0.21275018
0.21274524
0.21275116
0.21279144
0.21283141
0.21267318
0.21234105
0.21190087
0.21136272
0.2107551
0.21016162
0.21422022
0.21423103
0.21425319
0.21428944
0.21429578
0.21411791
0.21370898
0.21314194
0.2124653
0.21164212
0.21066186
0.21381616
0.21379131
0.21375143
0.21369326
0.21366407
0.21355171
0.21322391
0.21275154
0.21215147
0.21137533
0.21031872
0.21284834
0.21278686
0.21271047
0.21258684
0.2124536
0.21242781
0.21226077
0.21196001
0.21154898
0.21101826
0.21015783
0.21246138
0.21241847
0.21235348
0.21225704
0.21219817
0.21214455
0.21212584
0.21198293
0.21176482
0.21151219
0.21099381
0.21278853
0.21276715
0.21272554
0.21266898
0.21263291
0.21257425
0.21262058
0.21261109
0.21254427
0.2124209
0.21216693
0.21350684
0.21349762
0.21347022
0.21344255
0.21340826
0.21335919
0.21332463
0.21335937
0.21336652
0.21332261
0.21321247
0.21423757
0.21422013
0.214201
0.2141938
0.21418451
0.21418843
0.2140969
0.2140651
0.21405129
0.21401949
0.21390619
0.21514041
0.21510775
0.21509341
0.21506571
0.21508048
0.21513317
0.21514136
0.21508807
0.21500551
0.21491813
0.21472937
0.21656243
0.21654699
0.21655848
0.21655141
0.21657974
0.21665967
0.21677249
0.21682013
0.21675903
0.2166175
0.21633992
0.21756225
0.21757551
0.21762541
0.21766983
0.2177197
0.21780135
0.21792119
0.21800521
0.2180622
0.21798164
0.21772485
0.21751824
0.21750945
0.21755666
0.21763371
0.21769284
0.21778457
0.21793549
0.21805514
0.21810671
0.21808035
0.21789718
0.21736565
0.21734619
0.21738832
0.21747891
0.21757968
0.21769396
0.21787837
0.21809896
0.21824903
0.21831639
0.21820751
0.21720814
0.21722386
0.21727731
0.21737397
0.21751553
0.21762448
0.21777742
0.21802648
0.21832133
0.21859014
0.21857249
0.21583658
0.21587612
0.21587784
0.21598233
0.21609286
0.21618693
0.21623292
0.2163003
0.216459
0.21669981
0.21685546
0.21350358
0.21350755
0.21351789
0.21356068
0.21363052
0.21371517
0.21374929
0.21370532
0.21364153
0.21360264
0.21348062
0.2118404
0.21182225
0.21183745
0.21184179
0.21184729
0.21187102
0.21190061
0.21187745
0.21176259
0.21158716
0.21126046
0.21135767
0.21135386
0.21137827
0.2113907
0.21137203
0.21132903
0.21129432
0.21127074
0.21121135
0.21111257
0.21094149
0.21115126
0.21115904
0.21116709
0.21123057
0.21128091
0.21128002
0.21118893
0.21109448
0.21100827
0.21091151
0.21104447
0.2108018
0.21077867
0.2107827
0.21084212
0.2109647
0.21100009
0.21095421
0.21081856
0.2106514
0.21048809
0.21046009
0.21090391
0.21086018
0.2108513
0.21084756
0.21086642
0.21088735
0.21085351
0.21074348
0.21056223
0.21031601
0.2101037
0.21139106
0.21136052
0.21133437
0.21128188
0.21125033
0.21121645
0.21116705
0.21108702
0.2109734
0.2108251
0.21059303
0.21130368
0.21132111
0.21124306
0.21123071
0.21121446
0.21119321
0.21115997
0.21110809
0.21103444
0.21097272
0.21087322
0.21048042
0.21046887
0.21043988
0.2104266
0.21040712
0.21039141
0.21033629
0.21025656
0.21014755
0.21002384
0.20992919
0.20997872
0.20989389
0.20991758
0.20988734
0.2098642
0.20982869
0.20976342
0.20966493
0.2095471
0.20940075
0.20924441
0.2103983
0.21033021
0.21028581
0.2102356
0.21023385
0.21022854
0.21022235
0.21020525
0.21018278
0.21016173
0.2101038
0.21108007
0.21109065
0.21100181
0.21099041
0.21102552
0.21108588
0.21113763
0.21118507
0.21123359
0.21129788
0.21134999
0.21118064
0.2112192
0.21118646
0.21123555
0.21133231
0.21146357
0.21156371
0.21161632
0.21164197
0.21165986
0.21166921
0.21063673
0.21058252
0.21060434
0.21068834
0.2108046
0.21096642
0.21109536
0.2111363
0.2111139
0.21105601
0.2109356
0.21064706
0.21053146
0.21047755
0.21046591
0.21051309
0.21058553
0.21065028
0.2106498
0.21055314
0.21042285
0.21024053
0.2120138
0.2119419
0.21180638
0.2116029
0.21149312
0.21144607
0.21145562
0.21146086
0.21139601
0.21126841
0.21112235
0.21333807
0.21337816
0.2131878
0.21299993
0.21289556
0.21284821
0.21289333
0.21299075
0.21308374
0.21313221
0.21310126
0.21327066
0.21344024
0.21314565
0.21318728
0.21316759
0.21326574
0.21340391
0.21356732
0.21370144
0.21379283
0.21380184
0.21283096
0.2129406
0.21279167
0.21274737
0.21270895
0.21283066
0.21295763
0.2130325
0.21301791
0.2129515
0.21290709
0.21325299
0.21316954
0.21336372
0.21299693
0.2128329
0.21278062
0.21278039
0.21273973
0.21261228
0.21231534
0.2127253
0.2147141
0.21456724
0.21474934
0.21443958
0.21423415
0.21404917
0.21400485
0.21406106
0.21411051
0.2141396
0.21440137
0.21654832
0.21661117
0.21648747
0.2163561
0.21612947
0.21594186
0.2159412
0.21605337
0.21625654
0.21652369
0.21696096
0.21663914
0.2168319
0.21669614
0.21668179
0.21649221
0.21639132
0.2163689
0.21655554
0.21676117
0.21704939
0.21753215
0.21430086
0.21431818
0.214432
0.21441253
0.21432336
0.21431722
0.21434834
0.21447277
0.21456635
0.21468334
0.21488691
0.21221341
0.21207356
0.21235569
0.21227431
0.21213334
0.21196391
0.21191285
0.21188752
0.21178395
0.21155783
0.21120605
0.21326322
0.21317144
0.21306954
0.21291715
0.2126697
0.21225696
0.21189696
0.21159678
0.21130825
0.21094369
0.21043451
0.21525954
0.21528517
0.21504056
0.21478943
0.21450321
0.21407064
0.21336904
0.21308666
0.21277926
0.21250009
0.21194735
0.21438601
0.21439482
0.21430868
0.2142564
0.21411166
0.21390754
0.21359807
0.21325852
0.21288606
0.21240682
0.2119406
0.21284225
0.21266744
0.21268754
0.21282663
0.21287676
0.21294774
0.21290469
0.21275002
0.21252414
0.21222531
0.21173376
0.21294897
0.21273587
0.21288207
0.2128675
0.21297094
0.21291412
0.2128094
0.21266826
0.21246802
0.21223475
0.21188514
0.21286283
0.21273282
0.21273557
0.21267976
0.21279022
0.21260788
0.21230923
0.21195101
0.21157504
0.21124604
0.21092351
0.21339925
0.213407
0.21307027
0.2129659
0.21279642
0.21266633
0.21252022
0.2122868
0.21197808
0.21158731
0.21104139
0.21999184
0.2200374
0.21953287
0.21919499
0.21859801
0.21826344
0.21808054
0.21802381
0.21810124
0.21794742
0.21747394
0.22850751
0.22875025
0.22931076
0.22799707
0.22727466
0.22647954
0.22584185
0.2254561
0.22523142
0.22506463
0.22485917
0.22635807
0.22654895
0.22709941
0.22678161
0.2264738
0.22596581
0.22545617
0.22502945
0.22477364
0.22468597
0.22455029
0.21803342
0.21792163
0.21773421
0.21762905
0.21773276
0.21803492
0.21837257
0.21875903
0.21923261
0.21981359
0.22032859
0.21688543
0.21675788
0.21586794
0.21574572
0.21576083
0.21599796
0.21630482
0.21669837
0.21713924
0.21779801
0.21870992
0.22253051
0.22237289
0.22213973
0.22200447
0.22200639
0.22197174
0.22170083
0.22130949
0.22090185
0.22057403
0.22063817
0.22861803
0.22817699
0.22794928
0.22768519
0.2278608
0.22806685
0.22783895
0.22717072
0.22571553
0.22439177
0.22328544
0.23303943
0.23261598
0.23209607
0.23146113
0.23136079
0.23152542
0.23167296
0.2315585
0.23102348
0.23044111
0.22981486
0.22996831
0.22993448
0.22954052
0.22871723
0.22800501
0.22764738
0.22763277
0.2278425
0.22781779
0.22765733
0.22769078
0.22130108
0.22101657
0.22115739
0.2210436
0.22068742
0.2200931
0.21974582
0.21973742
0.21991119
0.22004705
0.22054744
0.22168377
0.22123175
0.22043532
0.21908898
0.21728469
0.21595226
0.21547583
0.21509626
0.21487583
0.21474805
0.21539491
0.23193126
0.23225211
0.23095161
0.22878307
0.22524927
0.22159223
0.2189102
0.21715453
0.21602639
0.21534671
0.21546876
0.23821382
0.2383674
0.23839011
0.23741314
0.23574954
0.23323679
0.23032799
0.22772725
0.22570749
0.2243209
0.2235666
0.24035857
0.2397441
0.240247
0.23962539
0.23964625
0.23932118
0.23806386
0.23625244
0.23431178
0.23284196
0.23212498
0.24059703
0.24033241
0.24002007
0.24035248
0.24068168
0.24102948
0.24099032
0.24025658
0.23877067
0.23664166
0.23515285
0.23747667
0.23754554
0.23657743
0.23544546
0.23662574
0.23890638
0.24083525
0.24210249
0.24236052
0.24149444
0.23951223
0.23412966
0.23381077
0.23397648
0.23204289
0.23005141
0.23093857
0.23323483
0.23579788
0.23838182
0.24038297
0.24098673
0.23211608
0.23177517
0.23230111
0.23212507
0.22600718
0.2243267
0.22426943
0.22528955
0.22732658
0.23006708
0.23263552
0.22993897
0.22976661
0.23008042
0.23083806
0.22833032
0.22471149
0.22262923
0.22139707
0.22015329
0.22078663
0.22249614
0.23105485
0.23055224
0.23070023
0.23152286
0.23097247
0.22914465
0.22707188
0.22501787
0.22326025
0.2216722
0.22100896
0.23870195
0.2384587
0.23845214
0.23897187
0.23907948
0.23815246
0.23637814
0.23294601
0.23051878
0.22832001
0.2268198
0.2437533
0.24393361
0.24397118
0.24615131
0.24714945
0.2465975
0.24444816
0.24124143
0.23764224
0.2342801
0.23163328
0.2392283
0.24020925
0.24022375
0.23994921
0.23961272
0.23870403
0.23702149
0.2343294
0.23098451
0.22851159
0.22681035
0.22099922
0.22135643
0.2204684
0.21782219
0.21454214
0.2121642
0.21028377
0.20884239
0.20891693
0.21104502
0.21339717
0.1999645
0.19918909
0.19670225
0.19112925
0.18527123
0.18168352
0.18046219
0.18238654
0.18783853
0.19483092
0.20133909
0.20373771
0.20264146
0.19977651
0.19381484
0.18714562
0.18342837
0.18273418
0.18582824
0.19135755
0.19693827
0.20195377
0.22736724
0.22676403
0.22520431
0.22158753
0.21736599
0.21480016
0.21445271
0.21585171
0.21788616
0.21943631
0.22057382
0.24407005
0.24407461
0.24371892
0.24235617
0.24056981
0.23916547
0.23862682
0.2386982
0.23858104
0.23798992
0.23707038
0.24344122
0.24377036
0.24359523
0.2430019
0.24219972
0.24141094
0.24080239
0.24016912
0.23914433
0.23773582
0.23601101
0.23513551
0.23531079
0.23510276
0.23495308
0.23444419
0.23376359
0.23307688
0.23236715
0.23144119
0.23032627
0.22891734
0.22789766
0.22792124
0.22779232
0.22759755
0.22725903
0.22676342
0.22618356
0.22553456
0.22488899
0.22430474
0.22376549
0.22281767
0.22285208
0.22264902
0.22231516
0.22193554
0.22148563
0.22087798
0.22008852
0.21922907
0.21840665
0.21826762
0.22001714
0.22000415
0.21992856
0.21974139
0.21954238
0.21935015
0.21904857
0.21843635
0.21749591
0.21641088
0.21575824
0.21967885
0.2196824
0.21979591
0.21983892
0.22013473
0.2204358
0.22075558
0.22084687
0.2206075
0.22015523
0.21976412
0.2192324
0.21922471
0.21942061
0.21972165
0.21999692
0.22038653
0.2209846
0.2215939
0.2221027
0.22254358
0.222957
0.21749133
0.21736249
0.2173684
0.21763958
0.2175743
0.21748881
0.21766466
0.21810633
0.21867138
0.21929325
0.21997735
0.21686601
0.21651401
0.21649089
0.21648705
0.21616088
0.21545739
0.21450587
0.21418614
0.21418982
0.2143933
0.21484062
0.21701031
0.21636341
0.21648938
0.21625558
0.21591006
0.21500884
0.21390995
0.21301159
0.21247445
0.21224985
0.21219937
0.21567284
0.21495165
0.2146887
0.21424252
0.21402648
0.21357051
0.2130232
0.21258236
0.21241051
0.21250689
0.21254222
0.21450355
0.21439713
0.2136703
0.21308629
0.2124903
0.21200847
0.2119172
0.21221718
0.21276788
0.21345438
0.21423807
0.21716919
0.21766353
0.21650502
0.21615007
0.21540054
0.21486401
0.21472179
0.2150764
0.21583564
0.21675302
0.21752069
0.22252192
0.22323582
0.22244679
0.22223372
0.22173198
0.22096906
0.22064755
0.22085322
0.22149252
0.22231619
0.22288486
0.22571072
0.22635367
0.22575941
0.22483786
0.22393695
0.22309383
0.22277835
0.22302986
0.22388595
0.22519164
0.22643997
0.22553984
0.22585998
0.22541348
0.22439295
0.22265139
0.22127075
0.22018203
0.21964038
0.2199206
0.22129919
0.22330012
0.22393247
0.22396633
0.22391022
0.22299481
0.22127856
0.21960054
0.21803239
0.21679225
0.21535703
0.21518064
0.2166232
0.22180181
0.22170253
0.22205825
0.22132761
0.22013003
0.21879854
0.21744968
0.21616446
0.21504918
0.21429911
0.21409403
0.21869981
0.21866716
0.21897844
0.21873494
0.21821772
0.21758002
0.2169859
0.21642741
0.21588813
0.21543214
0.21506365
0.21518609
0.21516614
0.21531364
0.21542442
0.21539736
0.21534221
0.21527314
0.21518457
0.21507189
0.21496485
0.21479996
0.21262729
0.21253172
0.21266929
0.21263296
0.21274721
0.2128101
0.21281667
0.21276344
0.21262785
0.21240953
0.21221364
0.21094051
0.21087612
0.21095459
0.21081024
0.21076892
0.21061808
0.21049324
0.21026964
0.20995313
0.20960914
0.20924544
0.21002135
0.21001229
0.20996857
0.20994757
0.20976479
0.20950636
0.20928027
0.20893213
0.20847637
0.20804085
0.20767885
0.21092483
0.21092846
0.21080282
0.21096371
0.21074942
0.21053968
0.21027697
0.2099062
0.20938873
0.20889377
0.20854746
0.21327644
0.21328008
0.21330319
0.21348169
0.21332276
0.21303862
0.21263141
0.21214919
0.21147467
0.21065323
0.20987264
0.21478201
0.21481621
0.21488125
0.21502878
0.21492684
0.21457942
0.21407038
0.21348834
0.21278666
0.21184915
0.210694
0.21413215
0.21413893
0.21415273
0.21426281
0.21418869
0.21394197
0.21350249
0.21296521
0.21234156
0.2115087
0.21028582
0.2128016
0.2127684
0.2127353
0.21272993
0.21269905
0.21260841
0.21234753
0.21198678
0.21153066
0.21092379
0.20998611
0.21218361
0.2121425
0.2120938
0.21205716
0.21221811
0.21216226
0.2120561
0.21189507
0.21166219
0.21135945
0.21079594
0.212539
0.21251967
0.212474
0.2124615
0.2125237
0.21252564
0.21253675
0.21248316
0.21240903
0.2123157
0.21205846
0.21338518
0.21339999
0.21334963
0.21333995
0.2133636
0.2133227
0.21331614
0.21325708
0.2131977
0.21313996
0.213033
0.21411865
0.21412236
0.21409221
0.21407867
0.21409199
0.21410176
0.21405047
0.21397865
0.21387863
0.21377045
0.21362991
0.2150178
0.21497434
0.21497223
0.2149295
0.21497456
0.21504318
0.21514935
0.21508665
0.21495958
0.21479839
0.21453606
0.21651407
0.21649502
0.21652989
0.21652276
0.21660749
0.21675279
0.21689162
0.21692718
0.21684538
0.2166947
0.2163973
0.21757098
0.21759095
0.21764261
0.21766595
0.21770749
0.21781381
0.21796076
0.2180897
0.21812207
0.21804935
0.21783089
0.21742211
0.21742448
0.21745415
0.21751822
0.21749476
0.21754073
0.21764146
0.21775476
0.2178792
0.21785516
0.21771748
0.21719795
0.21718724
0.21722593
0.2173203
0.21735358
0.21739169
0.21748615
0.21763319
0.21777127
0.21786159
0.21772829
0.21727138
0.2172989
0.21737192
0.21748667
0.21762454
0.21765904
0.21772697
0.21788931
0.21811148
0.21832163
0.21838224
0.21624958
0.21631042
0.21636306
0.21645128
0.21657516
0.21660939
0.21657229
0.21658725
0.21672378
0.21699152
0.21726785
0.21394955
0.21396225
0.21397946
0.21402087
0.2140876
0.21414235
0.21408667
0.21395128
0.21384105
0.21385148
0.21395245
0.21200998
0.2119802
0.21199611
0.21201143
0.21202251
0.21206025
0.21208248
0.21201985
0.21187685
0.2116841
0.21143548
0.21140479
0.21140591
0.21143924
0.21144132
0.21142671
0.21139301
0.21137665
0.21136789
0.21132479
0.21122406
0.21098114
0.21106996
0.21108963
0.21110863
0.21114001
0.21115396
0.21109891
0.21104646
0.21096302
0.21089397
0.21087036
0.21085552
0.21034927
0.21033475
0.21033582
0.21039082
0.21043886
0.21044748
0.21037836
0.21023992
0.21005934
0.20993715
0.20996828
0.21034142
0.21026791
0.21027507
0.21026626
0.21024748
0.21021078
0.21012798
0.20998788
0.20978864
0.20954541
0.20936076
0.21115614
0.21112991
0.21110703
0.21104541
0.21097642
0.21087323
0.21075195
0.21061766
0.21047283
0.21029072
0.20996873
0.21125175
0.21128111
0.21122662
0.21121515
0.21119016
0.21113581
0.21106205
0.21096974
0.21087118
0.21080139
0.21062026
0.21023106
0.21020134
0.21018583
0.21021041
0.21022931
0.21023111
0.21019768
0.21012691
0.21003097
0.20994555
0.20985633
0.20980783
0.20968506
0.20968729
0.20967148
0.20964846
0.20962557
0.20956449
0.20948052
0.20938599
0.20927288
0.20917797
0.21066424
0.21059845
0.21054781
0.21047141
0.21041713
0.21036105
0.21030154
0.21025002
0.21021644
0.21020343
0.21018273
0.21145441
0.21149715
0.2114301
0.21136817
0.21136462
0.21135247
0.21134546
0.21134904
0.21136859
0.21142412
0.21149929
0.21107497
0.21108039
0.21107331
0.21116683
0.21129017
0.21139437
0.21147298
0.21152291
0.21156115
0.21158883
0.21162884
0.21038504
0.21026185
0.21028287
0.21042433
0.21059834
0.21078895
0.21089379
0.210928
0.21091801
0.2108855
0.21071595
0.21082376
0.21069085
0.2106018
0.21060177
0.21062691
0.21070677
0.21072994
0.21066808
0.21053326
0.21034284
0.21007773
0.21232988
0.2122527
0.21210041
0.21187076
0.21170821
0.21163666
0.21158968
0.21152901
0.21142011
0.21127455
0.21103843
0.21336654
0.21335746
0.2132189
0.21301414
0.21289631
0.21283037
0.21285824
0.21293491
0.21301859
0.21309262
0.21304411
0.21325764
0.21336444
0.21314284
0.21320971
0.21325822
0.21334162
0.213477
0.2136499
0.21379346
0.213893
0.21383225
0.21297047
0.21311104
0.21293918
0.21296908
0.21303455
0.21319746
0.21332968
0.21339619
0.21336962
0.21328511
0.21308832
0.21333571
0.21333403
0.21334958
0.21317873
0.21305845
0.21308178
0.2131018
0.21304964
0.21300301
0.21289352
0.21286078
0.2148562
0.21469461
0.21479034
0.21450346
0.21429076
0.21415019
0.21412679
0.21416644
0.21421366
0.21424134
0.21451544
0.21686762
0.21686408
0.21674625
0.21650347
0.21624124
0.21600883
0.21593617
0.21605424
0.21628011
0.21655464
0.21697547
0.21655963
0.21672308
0.21661972
0.21660547
0.21644089
0.21634718
0.21635081
0.21650903
0.2168192
0.21719735
0.21768296
0.21337732
0.21334894
0.21347297
0.2136617
0.21379574
0.21395247
0.21404982
0.2141879
0.21447756
0.21471004
0.21493517
0.21129733
0.21105614
0.21127045
0.21132201
0.21142934
0.21156412
0.21163573
0.21165533
0.21156222
0.21126246
0.21081904
0.21368952
0.21345997
0.21343372
0.21300076
0.21257044
0.21216669
0.21201548
0.21174239
0.21128761
0.21067845
0.20993969
0.2168599
0.21689867
0.2166401
0.21612126
0.21540055
0.21466067
0.21407602
0.21349387
0.21280462
0.21215645
0.21180173
0.21560167
0.21565838
0.21553147
0.21544291
0.21505831
0.21462873
0.21422407
0.2138021
0.21330156
0.21278691
0.21252479
0.21300719
0.21286418
0.21286619
0.21308055
0.21311115
0.21310025
0.21296703
0.21278956
0.21255088
0.21225786
0.21189568
0.21315767
0.21272003
0.21303258
0.21282773
0.21302307
0.21293396
0.21273138
0.21246534
0.21215447
0.21184662
0.21149948
0.2135261
0.21308987
0.21316913
0.21307615
0.21318796
0.21298096
0.21260124
0.21211373
0.21161008
0.21116253
0.21072037
0.21357003
0.21345674
0.21292612
0.21306546
0.21296238
0.21289679
0.21273699
0.21244082
0.21203057
0.21151688
0.21084231
0.2188596
0.21907918
0.21881977
0.21822756
0.21763902
0.21732685
0.21716317
0.21729065
0.21718042
0.21689939
0.21628698
0.2258529
0.22608251
0.22636432
0.22597795
0.22520228
0.22447466
0.22393755
0.22364229
0.22346007
0.22338595
0.22299859
0.22391607
0.22406576
0.22435397
0.22460943
0.22474161
0.22449231
0.22408202
0.22369732
0.22348548
0.22349086
0.22347205
0.21748689
0.21726649
0.21645691
0.21647331
0.21753273
0.21831827
0.21897261
0.21937842
0.21977736
0.22026255
0.22065253
0.21807518
0.2177679
0.21679098
0.21645185
0.21651882
0.21732373
0.21820876
0.21883951
0.21934916
0.21990536
0.22043342
0.22438613
0.22418592
0.22395235
0.2238799
0.22405021
0.22401812
0.22379281
0.22345697
0.22306457
0.22271781
0.22262055
0.22939291
0.22896747
0.22902156
0.22883185
0.22901418
0.22900667
0.22857979
0.22779214
0.22667726
0.22544966
0.22429584
0.2315399
0.23100774
0.23101859
0.23098478
0.2311252
0.2312342
0.2311804
0.23094207
0.23046854
0.22988786
0.22913565
0.22814838
0.22775907
0.22769185
0.2275931
0.22758242
0.22752671
0.22747726
0.22741006
0.22742683
0.22731192
0.22706455
0.22114051
0.22089371
0.22078658
0.22125632
0.22138334
0.22088764
0.22027501
0.21983994
0.21960537
0.21950282
0.21936498
0.22065666
0.22055096
0.21967777
0.219458
0.21905889
0.21843979
0.21790608
0.21725451
0.21659417
0.21612754
0.21596355
0.22811307
0.22810713
0.22701587
0.2254389
0.22292097
0.22056308
0.2190091
0.21811964
0.21749251
0.21699961
0.21692037
0.23388749
0.2336748
0.23381218
0.23251855
0.23082729
0.22872342
0.22655052
0.22469862
0.22342093
0.22277661
0.22268796
0.23679267
0.23630872
0.2365315
0.23613698
0.23594171
0.23528023
0.23425075
0.23292531
0.23146027
0.23037719
0.22999551
0.23931792
0.23906923
0.23866485
0.2381613
0.23809403
0.23811842
0.23791725
0.2372344
0.23607972
0.23466235
0.23372518
0.2392766
0.23903303
0.23907108
0.23842669
0.23819319
0.23856817
0.23873382
0.23900127
0.23898549
0.23830478
0.2371227
0.23610864
0.23590062
0.2360035
0.23587973
0.2355664
0.2358745
0.23633312
0.23689785
0.23784254
0.23885868
0.23900637
0.23064607
0.23051359
0.23002615
0.23009684
0.22958108
0.22904808
0.22895152
0.22943094
0.23065669
0.23243098
0.23396118
0.22732419
0.22674392
0.22616315
0.22481865
0.22399683
0.22336655
0.22241855
0.22118873
0.22221827
0.22348073
0.22505983
0.23080907
0.23011136
0.22982365
0.22927945
0.22824069
0.22680334
0.22555376
0.22435428
0.22316067
0.22226988
0.22211108
0.23798815
0.23807472
0.23814817
0.23836429
0.23840082
0.2380377
0.2368649
0.23495118
0.23223842
0.22987003
0.22812199
0.24285692
0.24300102
0.24316463
0.24376206
0.24404899
0.24377127
0.24267339
0.24090533
0.23852241
0.23602877
0.23334019
0.24110605
0.24132187
0.2412714
0.24122745
0.2409738
0.24012536
0.23830467
0.23582459
0.23308133
0.23138381
0.2297028
0.22769555
0.22797326
0.22850964
0.22799771
0.2265684
0.22395017
0.22117901
0.21815772
0.21664801
0.21732407
0.21804392
0.20722017
0.20676391
0.20608348
0.20308798
0.19868759
0.19480171
0.19250169
0.19259441
0.19639348
0.20130594
0.20578379
0.20495135
0.20393384
0.20196233
0.19659698
0.1893319
0.18308321
0.18212427
0.18548626
0.19195335
0.19747025
0.20232563
0.22388124
0.22346305
0.22140153
0.2167179
0.21116589
0.20757711
0.20660662
0.20929255
0.21255924
0.21512409
0.21729017
0.24136565
0.24194534
0.24129118
0.23913778
0.23619793
0.23405538
0.23347662
0.23394115
0.2342116
0.23410372
0.23388534
0.2425967
0.24336446
0.24356732
0.24296468
0.24168949
0.24037658
0.23953007
0.23888691
0.2377737
0.23629527
0.23462755
0.23557839
0.23585449
0.23620289
0.23598704
0.23532406
0.23445752
0.23358725
0.2327504
0.23165397
0.23031123
0.22862221
0.22868084
0.22862336
0.22884248
0.22874488
0.22849257
0.2280666
0.22725132
0.22653638
0.22580727
0.22505684
0.22418032
0.22359737
0.22350342
0.2233938
0.22323593
0.22296935
0.22251679
0.22192527
0.22122195
0.22042265
0.21970468
0.21918761
0.21996957
0.21989884
0.21969154
0.21965477
0.2199661
0.21980146
0.21946239
0.2188339
0.21790229
0.21685083
0.2160968
0.21879853
0.21873903
0.21878722
0.21913403
0.21952485
0.21999177
0.22039091
0.2205087
0.22026079
0.21977831
0.21933606
0.21870236
0.21862045
0.21867125
0.21895715
0.21942277
0.22010924
0.22084765
0.22150253
0.22198681
0.22233808
0.22266648
0.21846762
0.21832347
0.21833628
0.21823464
0.218086
0.21818732
0.21851417
0.21893303
0.21934724
0.21975405
0.22025728
0.21820864
0.21800393
0.21801736
0.21755338
0.21681433
0.21605241
0.21561618
0.21548991
0.21544016
0.21542526
0.21561665
0.21741459
0.21724878
0.21712468
0.21669923
0.21609484
0.21503298
0.21401845
0.21328844
0.21286214
0.21259923
0.212502
0.21552031
0.21558843
0.21515269
0.21494122
0.21448078
0.21382836
0.2131045
0.21248689
0.21212208
0.21194707
0.21179137
0.21409613
0.21435922
0.21363897
0.21343579
0.21292116
0.21255676
0.21233292
0.2123665
0.21259693
0.21294206
0.21324318
0.21666322
0.21667333
0.21623054
0.21577505
0.21493486
0.21433879
0.2141631
0.21449036
0.21520298
0.2160581
0.21666986
0.22272191
0.22283081
0.22278337
0.22214199
0.22124578
0.22037454
0.21983712
0.2198249
0.22028546
0.22100048
0.22159163
0.22681742
0.22701132
0.2268706
0.2260029
0.22528319
0.22442226
0.22372502
0.22355361
0.22392881
0.22473809
0.22555276
0.22677571
0.22708302
0.2267134
0.22587084
0.22474748
0.22362489
0.22273978
0.22231648
0.2226246
0.2234457
0.22490178
0.22487414
0.22506162
0.22463065
0.22419918
0.22291792
0.22159896
0.22028611
0.21913729
0.21839137
0.21852865
0.21963814
0.2222235
0.2223177
0.22216178
0.22182076
0.22097796
0.22000614
0.21889482
0.21772948
0.21669488
0.21603055
0.21583693
0.2185482
0.2185671
0.21859077
0.21841588
0.21812415
0.21778759
0.21736232
0.2168239
0.21626378
0.21572172
0.21522087
0.21479623
0.21477741
0.21487055
0.21485214
0.2148232
0.21485918
0.21485446
0.21471705
0.21451285
0.2142714
0.21395964
0.21220076
0.21215937
0.21227815
0.21220441
0.21215979
0.2121634
0.21211637
0.21193931
0.21167357
0.2114075
0.21107656
0.21055212
0.21050302
0.21059521
0.21040588
0.2102911
0.2101431
0.20990871
0.20950391
0.20901156
0.20861377
0.20821925
0.20977294
0.20972147
0.20968852
0.20958201
0.20948727
0.20930188
0.20901613
0.20850678
0.20789528
0.20749678
0.20709195
0.21093797
0.21090324
0.21085413
0.21087901
0.21082833
0.21068487
0.21043546
0.21008455
0.20942735
0.20892566
0.20861157
0.2135691
0.21358286
0.21362044
0.2136764
0.21359065
0.21342557
0.21317843
0.21282202
0.21221771
0.21149301
0.21093075
0.21506199
0.2150948
0.21518228
0.21520588
0.21507248
0.21482899
0.21453054
0.21416664
0.21371814
0.21285192
0.21184545
0.21425554
0.2142555
0.21428953
0.21428168
0.21414714
0.21391563
0.21364544
0.21330322
0.21286282
0.21216776
0.21104372
0.21266541
0.21262845
0.21256765
0.21260046
0.21248137
0.21235968
0.21218887
0.2119187
0.21156711
0.21104753
0.21018302
0.2118862
0.2118412
0.21175552
0.21179249
0.2117318
0.21174775
0.21171979
0.2116307
0.2114343
0.21113115
0.21062609
0.21230609
0.21228216
0.21220673
0.21225082
0.21223802
0.21224695
0.21224765
0.21226774
0.21222196
0.2120982
0.21179426
0.21327808
0.21329994
0.21323276
0.21325578
0.21326874
0.21317905
0.21311035
0.21306257
0.21302742
0.21298192
0.21282105
0.2140444
0.21405596
0.21401278
0.21397232
0.21403932
0.21395828
0.21388475
0.21378745
0.21366109
0.21359211
0.21349774
0.21497354
0.21493587
0.21495413
0.21487022
0.21498123
0.21502605
0.21504364
0.21498478
0.21485645
0.21470194
0.21446782
0.21652725
0.21651192
0.21657518
0.21656717
0.21667918
0.21679952
0.21687401
0.21688453
0.21679868
0.21676789
0.21646247
0.21757104
0.21759665
0.21766285
0.21769361
0.21771744
0.2178047
0.2178806
0.21795163
0.21799512
0.21798671
0.21786544
0.21730029
0.21731318
0.2173325
0.21739752
0.21727393
0.21729974
0.21733093
0.21738791
0.21745044
0.21749814
0.21745418
0.21693067
0.2169303
0.21695532
0.21704812
0.21698404
0.21694103
0.2169748
0.21704905
0.21714001
0.21718039
0.21707429
0.21711718
0.21715222
0.21723781