/*--------------------------------*- C++ -*----------------------------------*\
| =========                 |                                                 |
| \\      /  F ield         | OpenFOAM: The Open Source CFD Toolbox           |
|  \\    /   O peration     | Version:  4.1                                   |
|   \\  /    A nd           | Web:      www.OpenFOAM.org                      |
|    \\/     M anipulation  |                                                 |
\*---------------------------------------------------------------------------*/
FoamFile
{
    version     2.0;
    format      ascii;
    class       volVectorField;
    location    "0";
    object      U;
}
// * * * * * * * * * * * * * * * * * * * * * * * * * * * * * * * * * * * * * //

dimensions      [0 1 -1 0 0 0 0];

internalField   nonuniform List<vector> 
87615
(
(-0.033323764 -0.030996001 0.18120643)
(-0.057385923 -0.053190426 0.42553123)
(-0.032230088 -0.041341592 0.51029688)
(-0.014033776 -0.037348003 0.60733095)
(-0.025330385 -0.055140886 0.75633416)
(-0.041172283 -0.07141572 0.9621737)
(-0.04001476 -0.068901416 1.1494842)
(-0.035586288 -0.054222814 1.2608226)
(-0.041134403 -0.040063338 1.3183885)
(-0.051686908 -0.027892216 1.3334928)
(-0.05899286 -0.018900988 1.3133163)
(-0.029096142 -0.025843338 0.18342449)
(-0.041813715 -0.049645617 0.41317413)
(-0.015440679 -0.054689071 0.50195375)
(0.005858982 -0.056623261 0.59112173)
(0.00038112928 -0.06925373 0.70370312)
(-0.020784607 -0.086314939 0.84449323)
(-0.034574595 -0.095497458 1.0016982)
(-0.034289961 -0.096367765 1.1369572)
(-0.026577248 -0.089331358 1.239197)
(-0.017246229 -0.084240797 1.2871959)
(-0.018374888 -0.07333889 1.2944441)
(-0.016018945 -0.017862234 0.17114685)
(-0.00036230154 -0.027702939 0.36821071)
(0.031203672 -0.040518066 0.46927465)
(0.047901539 -0.058833862 0.59739647)
(0.039459429 -0.078463895 0.71443214)
(0.015438125 -0.10124418 0.82419963)
(-0.012457113 -0.12636361 0.92180024)
(-0.028999282 -0.15082824 1.003254)
(-0.026778702 -0.16055912 1.072006)
(-0.021128627 -0.16014238 1.1228084)
(-0.013796182 -0.1452947 1.1874758)
(0.0089849132 -0.00028818192 0.15222699)
(0.056103516 0.016276264 0.33128209)
(0.096342263 0.023012694 0.45448976)
(0.11259947 0.005226016 0.64802819)
(0.087357586 -0.031798398 0.77493539)
(0.040162907 -0.073360144 0.84567058)
(-0.011103963 -0.11745288 0.88784201)
(-0.057519829 -0.1558232 0.9261849)
(-0.088558784 -0.17958709 0.99602631)
(-0.10280291 -0.17640497 1.0926212)
(-0.083359051 -0.16722322 1.186328)
(0.025763255 0.013672948 0.15223018)
(0.088064586 0.059907283 0.36111146)
(0.13626461 0.10861134 0.50202608)
(0.15813525 0.1184465 0.71810703)
(0.11519955 0.07046557 0.86698103)
(0.032720182 0.0081337448 0.89519524)
(-0.049267698 -0.044774612 0.92743402)
(-0.12531732 -0.080639211 1.0044385)
(-0.17347044 -0.10463076 1.1081054)
(-0.18468673 -0.10096739 1.1956716)
(-0.16440382 -0.10262789 1.2529193)
(0.014850745 0.0074824208 0.1796609)
(0.070966786 0.067472764 0.46659702)
(0.12348381 0.1609616 0.5977242)
(0.1497892 0.2074602 0.78492133)
(0.11385587 0.17495085 0.95094621)
(0.030282517 0.10720319 1.0013148)
(-0.057040883 0.055001493 1.0452732)
(-0.13059011 0.022280005 1.1372318)
(-0.17190261 0.0015997894 1.2272624)
(-0.18195187 -0.00012370719 1.2745939)
(-0.18002523 -0.0042222716 1.3032589)
(-0.0090525451 -0.0073762459 0.20950195)
(0.022858151 0.030369429 0.59066954)
(0.075096203 0.13982375 0.73271049)
(0.099484088 0.20759837 0.85105954)
(0.089396719 0.21231572 0.99691396)
(0.039960886 0.16921257 1.0864615)
(-0.017556011 0.12486097 1.1464915)
(-0.066366385 0.09154522 1.2178585)
(-0.093404121 0.069222936 1.2779499)
(-0.10116135 0.061091062 1.3005599)
(-0.10509558 0.058251793 1.311207)
(-0.020207701 -0.014669224 0.21980542)
(-0.016949891 -0.011359212 0.63015977)
(0.028068863 0.066586035 0.8782032)
(0.045330993 0.1369883 0.93589859)
(0.049248397 0.16072913 1.026163)
(0.03280475 0.14965616 1.1066582)
(0.0098901389 0.1238435 1.1681135)
(-0.01034529 0.097702699 1.2201862)
(-0.019301425 0.075242818 1.2563116)
(-0.017934067 0.061794676 1.2645146)
(-0.010528024 0.059297641 1.2601704)
(-0.017141057 -0.014895257 0.21473773)
(-0.02940692 -0.023544414 0.58079678)
(-0.0015884103 0.0023717979 0.91676763)
(0.015988431 0.055091421 1.0178806)
(0.019303466 0.079253801 1.0543636)
(0.017362969 0.081539248 1.0974164)
(0.013136882 0.071049593 1.1364684)
(0.010243221 0.055535354 1.1689655)
(0.013203686 0.040269224 1.1899313)
(0.022671577 0.029292911 1.1946055)
(0.038767977 0.026577253 1.189275)
(-0.012633224 -0.013030204 0.20562038)
(-0.027302364 -0.021468629 0.53319038)
(-0.01890692 -0.022582693 0.83913239)
(-0.001525488 -0.001396988 1.0227327)
(0.0029826126 0.017735668 1.058751)
(0.0055074547 0.022931046 1.0744216)
(0.0082030082 0.020756744 1.0910212)
(0.012525715 0.014181983 1.1089085)
(0.019755522 0.0064812362 1.1277155)
(0.029387908 -0.00013990002 1.1442315)
(0.041973238 -0.0049136787 1.1519097)
(-0.0097795443 -0.0095767487 0.19707438)
(-0.02248512 -0.018537796 0.51532161)
(-0.025759172 -0.025697259 0.75466083)
(-0.017149523 -0.029015075 0.95296339)
(-0.011006674 -0.019906551 1.0254695)
(-0.0056525601 -0.01180678 1.0403695)
(0.00083310987 -0.0065569009 1.0491938)
(0.0086373409 -0.0041346584 1.0644401)
(0.016094769 -0.0061976105 1.0927811)
(0.019573852 -0.011585059 1.1267989)
(0.021676199 -0.021701129 1.146067)
(-0.0058548184 -0.0051651586 0.1891413)
(-0.012917574 -0.010667775 0.50730481)
(-0.020099062 -0.017723928 0.71342113)
(-0.021625433 -0.029367515 0.88232799)
(-0.019397602 -0.032394421 0.982017)
(-0.013765814 -0.023354753 1.0130373)
(-0.0046585261 -0.010483066 1.0263665)
(0.0052215158 0.0015728788 1.0466277)
(0.010708457 0.0064135437 1.0830738)
(0.007876566 0.0027902557 1.1234158)
(0.00082184582 -0.0093006347 1.1484841)
(-0.0030414243 -0.0033504786 0.18273096)
(-0.0037222357 -0.0012021088 0.49699789)
(-0.0084887316 -0.0033284126 0.70383412)
(-0.014370195 -0.011099463 0.85619697)
(-0.01755956 -0.017469468 0.96722313)
(-0.014381356 -0.010360937 1.0163219)
(-0.0053158059 0.0056074398 1.0395564)
(0.0043757404 0.02385492 1.0638411)
(0.0079292472 0.035770856 1.0971045)
(0.0029461758 0.037124513 1.128837)
(-0.0065806991 0.031012117 1.15062)
(-0.0049521939 -0.0068062601 0.1798086)
(-0.0028326507 9.2816607e-05 0.48559909)
(-0.0017776263 0.0049077198 0.69809561)
(-0.0058256149 0.0048457311 0.85412362)
(-0.009671878 0.0038897656 0.97774147)
(-0.0086349364 0.011803698 1.0436989)
(-0.0020808315 0.026370167 1.0769219)
(0.0055310663 0.043245745 1.102667)
(0.0088989001 0.055595197 1.1280313)
(0.0063201952 0.060445108 1.1475037)
(0.00029426503 0.06077416 1.1591528)
(-0.010276184 -0.014248916 0.17995209)
(-0.0095125878 -0.0071693276 0.49067348)
(-0.003649171 0.0020291087 0.69518347)
(-0.0042028091 0.0047539014 0.84858376)
(-0.0047862598 0.0067902765 0.98120324)
(-0.00277584 0.018262576 1.0630249)
(0.0022482526 0.03321611 1.1023172)
(0.0077192071 0.045982159 1.1264307)
(0.01137778 0.053728557 1.1444914)
(0.012345302 0.05542517 1.156348)
(0.011801134 0.053803493 1.1609955)
(-0.015288462 -0.020497167 0.17959292)
(-0.017316641 -0.012367317 0.53383235)
(-0.012128906 -0.00018456119 0.71859117)
(-0.011771167 -0.0030828335 0.8454724)
(-0.010745833 -0.0092529482 0.97134041)
(-0.0065122269 -0.0038465675 1.0650635)
(-0.00027098229 0.012136207 1.1058795)
(0.0056696447 0.025871815 1.1211098)
(0.010492006 0.033487826 1.1252519)
(0.014435994 0.034253181 1.1228043)
(0.018533803 0.028534762 1.1163433)
(-0.018281784 -0.021849421 0.17189712)
(-0.022288121 -0.015008404 0.59256262)
(-0.016890803 0.0064888647 0.75867614)
(-0.015930376 -0.00061975661 0.83950436)
(-0.018103616 -0.018658786 0.94051938)
(-0.016308502 -0.033175131 1.0428305)
(-0.011254836 -0.029460852 1.0938251)
(-0.0048104712 -0.016496572 1.1028237)
(0.0015917377 -0.0042019844 1.0924444)
(0.0079544295 0.0044137597 1.0691426)
(0.014993014 0.0067479877 1.0407173)
(-0.019391885 -0.018682482 0.15542504)
(-0.030386134 -0.027871071 0.59195671)
(-0.015106465 0.0055778339 0.77095338)
(-0.0057514308 0.010973172 0.82406722)
(-0.0091800323 -0.0042179042 0.89234899)
(-0.013340905 -0.032162649 0.99210006)
(-0.014418343 -0.051357129 1.0675456)
(-0.012520807 -0.051567304 1.0887639)
(-0.0086616787 -0.041291407 1.0770214)
(-0.0030830639 -0.026176289 1.0445285)
(0.0044097456 -0.0097106745 1.0016054)
(-0.017226114 -0.013793178 0.13962492)
(-0.038175541 -0.044013998 0.5192233)
(-0.014878163 -0.011812617 0.73580001)
(0.0041219738 0.017401069 0.81119802)
(0.0060140111 0.022680581 0.86402077)
(-8.8531914e-05 0.0046680879 0.94982354)
(-0.0058629054 -0.022915053 1.0457617)
(-0.0084685036 -0.039893477 1.101202)
(-0.0087828205 -0.040996875 1.1101267)
(-0.0074665396 -0.029927815 1.0911617)
(-0.0028014938 -0.010168878 1.0586033)
(-0.014177923 -0.010151782 0.13147195)
(-0.038488117 -0.048199415 0.45128741)
(-0.020282998 -0.028687201 0.70639628)
(-0.002253133 0.017827272 0.82038788)
(0.0060407227 0.044496267 0.87066505)
(0.0021602384 0.04875611 0.93399167)
(-0.0042007953 0.034901635 1.0268173)
(-0.0069882031 0.016147523 1.1145777)
(-0.007083619 0.0051539169 1.1681285)
(-0.0058585881 0.0067164713 1.1885385)
(-0.0024686154 0.01891212 1.1925409)
(-0.013153439 -0.0093712185 0.13020158)
(-0.036249962 -0.044560593 0.42979572)
(-0.03882058 -0.045521105 0.72204868)
(-0.024320877 0.0075618574 0.8567965)
(-0.011781584 0.047558956 0.90085855)
(-0.01088594 0.069511185 0.93466886)
(-0.015247698 0.075230505 0.99322691)
(-0.018624145 0.0692481 1.0720368)
(-0.018264936 0.059126816 1.1501018)
(-0.014612088 0.053336585 1.2118706)
(-0.0089868817 0.055633492 1.256086)
(-0.011774702 -0.0090739888 0.13129122)
(-0.032953463 -0.036758768 0.42964566)
(-0.065449427 -0.068274274 0.75988105)
(-0.0540881 -0.023285698 0.90845547)
(-0.038978214 0.02059187 0.94669921)
(-0.031760243 0.052267246 0.95702314)
(-0.028954741 0.071543801 0.97387103)
(-0.028852113 0.080281172 1.0057812)
(-0.028923668 0.079489647 1.0524997)
(-0.026996401 0.072941325 1.1078913)
(-0.022521799 0.067596486 1.1620491)
(-0.0078021615 -0.0070541709 0.13050072)
(-0.024754054 -0.023932552 0.41732846)
(-0.069689028 -0.075254118 0.77946741)
(-0.075453297 -0.061143251 0.95073219)
(-0.063389124 -0.027699559 0.99530491)
(-0.052079102 0.0033462126 0.99762761)
(-0.04143299 0.028030909 0.99177565)
(-0.031447249 0.045722929 0.98605015)
(-0.022650013 0.055586031 0.98453737)
(-0.016087193 0.055957897 0.99322167)
(-0.012106585 0.0489907 1.0166165)
(-0.0039761065 -0.0048214369 0.12783973)
(-0.015557243 -0.012546549 0.38810666)
(-0.046817552 -0.057303312 0.75001371)
(-0.071171316 -0.079045817 0.95706087)
(-0.070890876 -0.066946866 1.0229269)
(-0.06143221 -0.047049241 1.0312932)
(-0.048548245 -0.02701904 1.0225747)
(-0.031568554 -0.0085240634 1.0049308)
(-0.010289135 0.0066032275 0.97958642)
(0.011619559 0.015490125 0.95182945)
(0.025557051 0.014551759 0.93714921)
(-0.0020529428 -0.0030179985 0.12533652)
(-0.0089172525 -0.0073603234 0.35925421)
(-0.025671453 -0.037311843 0.68003345)
(-0.052082655 -0.074235609 0.93362621)
(-0.061419005 -0.079312618 1.0264609)
(-0.056916093 -0.07135477 1.0467272)
(-0.045611183 -0.059158221 1.0435101)
(-0.027830167 -0.045502029 1.0282964)
(-0.00070257482 -0.031444944 1.0008649)
(0.033295576 -0.019330646 0.96269054)
(0.062644536 -0.012112043 0.92612323)
(-0.00022627069 -0.00082828888 0.12315451)
(-0.0032557236 -0.004299124 0.34102129)
(-0.014083618 -0.023741779 0.61263008)
(-0.035638562 -0.059631123 0.89913253)
(-0.047910307 -0.071800894 1.0214124)
(-0.04616459 -0.069663993 1.055533)
(-0.036188128 -0.061419228 1.0594123)
(-0.019893799 -0.050752307 1.0509898)
(0.0070936255 -0.0388058 1.0306538)
(0.043349177 -0.02699876 0.99808527)
(0.080392936 -0.014821691 0.95679979)
(0.0017594044 0.00097050198 0.12050968)
(0.0012500694 -0.0011595627 0.33213625)
(-0.0063705475 -0.01276562 0.5732726)
(-0.022435641 -0.040476294 0.85826533)
(-0.035693454 -0.056416831 1.0111266)
(-0.036477931 -0.057064097 1.0637498)
(-0.02817959 -0.050696575 1.0754931)
(-0.01425514 -0.041447346 1.073798)
(0.0090816743 -0.03114415 1.0626293)
(0.040958245 -0.020340001 1.0414279)
(0.077351796 -0.0081101258 1.0082947)
(0.0016440535 0.0010746892 0.11781141)
(0.0017324715 -3.2667913e-05 0.32763882)
(-0.0035538286 -0.0071599268 0.55775183)
(-0.013466211 -0.024388438 0.82860668)
(-0.025571354 -0.038771012 0.99644649)
(-0.028887613 -0.04237197 1.0641625)
(-0.023379622 -0.039762291 1.0847991)
(-0.012535307 -0.034316923 1.0891801)
(0.0050949699 -0.028145081 1.0856194)
(0.029749821 -0.021374905 1.0754962)
(0.060748928 -0.012321539 1.05671)
(3.3391175e-05 -6.998328e-06 0.11586855)
(-0.00084977343 -0.0011630826 0.32188462)
(-0.0056975502 -0.0063900596 0.5443601)
(-0.012179835 -0.018455106 0.81376653)
(-0.021271598 -0.027792103 0.9856916)
(-0.02477412 -0.031557431 1.0550222)
(-0.021045681 -0.031648721 1.0782275)
(-0.012665711 -0.030311553 1.086089)
(0.00078040405 -0.028908361 1.0880787)
(0.02006359 -0.027410179 1.0869863)
(0.045490617 -0.022366337 1.0815597)
(-0.00080974144 -0.00060458751 0.11508749)
(-0.0023301982 -0.0024967933 0.31512971)
(-0.0074617884 -0.0070869218 0.52037199)
(-0.014114825 -0.018497194 0.78441518)
(-0.021331816 -0.026851732 0.97593563)
(-0.025814109 -0.029327291 1.0480628)
(-0.024317289 -0.029564315 1.0683424)
(-0.017835354 -0.028754672 1.0742041)
(-0.0059631502 -0.027451759 1.0769391)
(0.01241078 -0.025643986 1.0799243)
(0.03606683 -0.019992355 1.0819161)
(-0.00028245436 -0.00029150609 0.11562036)
(-0.0011084099 -0.0019527867 0.31430225)
(-0.006908762 -0.0075395096 0.50011862)
(-0.015668426 -0.019171473 0.73750352)
(-0.022159819 -0.028792737 0.95426258)
(-0.02922667 -0.031135256 1.0448286)
(-0.03269814 -0.031919485 1.0707711)
(-0.030527436 -0.030638769 1.0769983)
(-0.02115498 -0.026488623 1.0787138)
(-0.0030601618 -0.018919671 1.0801383)
(0.021592695 -0.0060634547 1.081191)
(0.00070112498 0.0006705481 0.11824721)
(0.0014935661 0.00093611088 0.32130534)
(-0.0046327218 -0.0050695995 0.49707023)
(-0.016956422 -0.018436081 0.70205984)
(-0.025458188 -0.03021828 0.92681843)
(-0.034366567 -0.033589175 1.0432371)
(-0.042265684 -0.034961018 1.08293)
(-0.046357208 -0.035088935 1.0973164)
(-0.042621255 -0.031081832 1.1049368)
(-0.028262122 -0.020082378 1.1081708)
(-0.0052550346 -0.00072603232 1.1068985)
(0.0021033593 0.0021220276 0.12312927)
(0.0048341421 0.0047114717 0.33094146)
(0.00055736311 0.00085694794 0.50514829)
(-0.01321651 -0.013142751 0.68640589)
(-0.026954816 -0.029447129 0.89873616)
(-0.037868243 -0.036889602 1.0397172)
(-0.048230199 -0.038883735 1.0952927)
(-0.056797137 -0.040326162 1.1189472)
(-0.059979829 -0.039296832 1.1369057)
(-0.052826407 -0.031841082 1.1513311)
(-0.035820369 -0.013642722 1.1569399)
(0.0038765975 0.0035244856 0.1284477)
(0.0086191657 0.0078365766 0.3390227)
(0.0075877495 0.0067898625 0.51431549)
(-0.0030390795 -0.0041870325 0.68382857)
(-0.019465329 -0.022785245 0.87421355)
(-0.032701112 -0.036055964 1.0274066)
(-0.044989081 -0.0418829 1.1020036)
(-0.055580244 -0.044052714 1.1341053)
(-0.062891643 -0.044612379 1.1572995)
(-0.062765208 -0.042055692 1.1817503)
(-0.052803521 -0.030595051 1.2007006)
(0.0049315212 0.0041972443 0.13233274)
(0.011330117 0.0097116327 0.34565281)
(0.012815333 0.010860163 0.5197789)
(0.0064795692 0.0037428156 0.68467556)
(-0.0078071886 -0.012998966 0.85957993)
(-0.021388068 -0.028330091 1.0105116)
(-0.03408742 -0.039425972 1.1002164)
(-0.045828342 -0.044910644 1.1412489)
(-0.054804976 -0.047169112 1.1653901)
(-0.058614672 -0.046888345 1.1903794)
(-0.054823614 -0.040491397 1.216564)
(0.0046612774 0.0039882736 0.13473288)
(0.011648757 0.0100643 0.35234813)
(0.015663857 0.014025234 0.52383136)
(0.012576487 0.010266033 0.68355991)
(0.0011304769 -0.003871553 0.85064393)
(-0.01116525 -0.017777457 0.99727115)
(-0.021306831 -0.029424419 1.0948488)
(-0.032495763 -0.039466816 1.1449181)
(-0.04265608 -0.046278127 1.1702489)
(-0.049224888 -0.049846545 1.190188)
(-0.051011285 -0.046828866 1.2125913)
(0.0032405571 0.0029347523 0.13662024)
(0.0088820763 0.0078531856 0.35778051)
(0.015492778 0.014660289 0.52825113)
(0.016108322 0.015341256 0.68091539)
(0.0075113467 0.0039581852 0.83952438)
(-0.0039266343 -0.009506823 0.98208287)
(-0.010510157 -0.016621722 1.0810744)
(-0.017027678 -0.025376027 1.1418631)
(-0.025289488 -0.034628432 1.1752688)
(-0.032991878 -0.043114945 1.1953258)
(-0.038745063 -0.045681854 1.2118326)
(0.0016164766 0.0016611282 0.1392975)
(0.0043379969 0.0039599087 0.36155874)
(0.011389287 0.011172971 0.53283978)
(0.015810019 0.016449233 0.6818285)
(0.011145514 0.009624755 0.83374112)
(-0.00074890081 -0.0059238578 0.97255115)
(-0.0079112402 -0.011987726 1.0630996)
(-0.009408657 -0.014461824 1.1253756)
(-0.011539986 -0.018838617 1.1685071)
(-0.015522013 -0.025581417 1.1980927)
(-0.019864769 -0.030456163 1.2186092)
(0.00095683445 0.0011433251 0.14334457)
(0.0012616256 0.0014435459 0.36561832)
(0.0060229647 0.0061925446 0.53308561)
(0.012640852 0.014327817 0.67850689)
(0.013089197 0.014257421 0.82862184)
(0.0030502331 -0.00090037731 0.97386366)
(-0.0090957706 -0.013721086 1.0623444)
(-0.012996734 -0.015700576 1.1125192)
(-0.012098215 -0.015224977 1.1533428)
(-0.010826677 -0.015719783 1.1900287)
(-0.010366121 -0.016157708 1.2213093)
(0.00094744598 0.0010602639 0.14794127)
(0.00093867393 0.0014041246 0.37515259)
(0.0021447475 0.0024994976 0.53613286)
(0.0082061044 0.0099325184 0.67039933)
(0.012722277 0.015703481 0.81191038)
(0.009148924 0.0077943486 0.96602873)
(-0.0033745659 -0.0090920467 1.0769321)
(-0.014297967 -0.017614211 1.1227612)
(-0.017918444 -0.019063671 1.1503336)
(-0.017142738 -0.018231425 1.1807139)
(-0.014630976 -0.015286376 1.2149669)
(0.00018804714 0.00047484418 0.15145743)
(0.00084409017 0.0019297276 0.38646404)
(0.0003891549 0.0018396348 0.54808154)
(0.0039492 0.006396279 0.67000741)
(0.0088297286 0.013561989 0.79150229)
(0.010304744 0.012910303 0.9374882)
(0.0038210501 -0.00047968965 1.0770835)
(-0.0083081922 -0.013912307 1.1496471)
(-0.018214054 -0.019985106 1.173543)
(-0.023147684 -0.021711402 1.1894551)
(-0.024194962 -0.020006638 1.212129)
(-0.001136794 -0.00046553718 0.15483664)
(-0.0018182079 2.4060807e-05 0.39223124)
(-0.0016069382 0.00090693409 0.56018835)
(0.00090246667 0.0044435255 0.68046297)
(0.0051800129 0.01209061 0.78300888)
(0.008056065 0.015803808 0.90296915)
(0.0068120619 0.007695524 1.0450789)
(-0.00033013823 -0.0072808727 1.1576666)
(-0.010377762 -0.018317458 1.2096978)
(-0.019347512 -0.023650494 1.2254958)
(-0.025795757 -0.024546181 1.2337269)
(-0.0010560098 -0.00041695494 0.15934325)
(-0.0037350937 -0.0018015499 0.39489983)
(-0.005049785 -0.002830148 0.56121088)
(-0.0031035232 -0.00088870238 0.68614656)
(0.0019601512 0.0076112113 0.78320361)
(0.0063313099 0.016690672 0.87710719)
(0.0081348591 0.01640647 0.99298144)
(0.0064065726 0.0045007906 1.1172285)
(0.001593552 -0.010459828 1.2096313)
(-0.0048632515 -0.021641401 1.257434)
(-0.012079079 -0.026682693 1.2753396)
(-0.00017716515 0.00019017095 0.16425487)
(-0.0013365229 0.00048054929 0.40471096)
(-0.0057048956 -0.0032083038 0.56235431)
(-0.0073785131 -0.0064996845 0.68288816)
(-0.0036642219 -0.002224462 0.78085609)
(0.0018679807 0.0090820868 0.8617876)
(0.0059679145 0.017876342 0.94561136)
(0.0076152216 0.015998722 1.0449034)
(0.0071793811 0.0045631788 1.1456465)
(0.0057504016 -0.010130158 1.2264928)
(0.0032009812 -0.020492236 1.2785239)
(-0.0011530661 -0.00064474384 0.1676927)
(0.00068297649 0.0026724923 0.41756755)
(-0.0020317064 0.0016359202 0.57286299)
(-0.0069592498 -0.0050158055 0.68143657)
(-0.0078473041 -0.0088550724 0.77344569)
(-0.0041720709 -0.003660008 0.84986116)
(0.00036095697 0.0070712883 0.91396924)
(0.0034220851 0.014537918 0.97877326)
(0.004590926 0.013344519 1.051265)
(0.00499599 0.0036417443 1.1273105)
(0.0052924649 -0.0083901323 1.1967331)
(-0.0031889009 -0.0024616815 0.16987688)
(-0.0023864095 -0.00079888967 0.42452204)
(0.00040969996 0.0031852384 0.58478621)
(-0.002229014 -0.00033171771 0.68618525)
(-0.0056104437 -0.0082152026 0.76718857)
(-0.0051350583 -0.012247705 0.83786055)
(-0.0016434492 -0.0084899359 0.8941455)
(0.0021467561 -0.0006183219 0.93813764)
(0.0044413031 0.0053704256 0.97793234)
(0.0052293838 0.0049830744 1.0214948)
(0.00493031 -0.0010051082 1.0718356)
(-0.0029411008 -0.0024337905 0.17111447)
(-0.0055792265 -0.0048223147 0.42749752)
(-0.0013753507 -0.0010977539 0.5915011)
(0.00098683939 0.00071441783 0.69254687)
(-0.00017325514 -0.0045137936 0.76533565)
(-0.00083645935 -0.012768136 0.82795288)
(0.0014862955 -0.017798743 0.88031542)
(0.0059336651 -0.017142891 0.91829327)
(0.010440668 -0.013022371 0.94322642)
(0.01359401 -0.0093295346 0.96200231)
(0.013985798 -0.0072384804 0.98432178)
(-0.00064333498 -0.00065930022 0.17161084)
(-0.0031930722 -0.0024450742 0.43500274)
(-0.002738059 -0.002663276 0.60235282)
(0.0013518401 0.0007675999 0.70476029)
(0.0039172653 0.00086280482 0.77244506)
(0.0047927887 -0.004675778 0.82622113)
(0.0065867203 -0.012979965 0.87252523)
(0.010655151 -0.019698566 0.90849653)
(0.016364265 -0.022828263 0.93135193)
(0.02238066 -0.023383451 0.94307646)
(0.025875483 -0.021024045 0.95215291)
(0.00023626102 0.00013460341 0.17097361)
(-4.0459424e-05 0.0012039415 0.4416562)
(-0.00092694687 0.00024791735 0.61413278)
(0.0018586782 0.0014098818 0.72041809)
(0.0062793679 0.0044296919 0.78851683)
(0.0099750246 0.005238471 0.83680026)
(0.013141503 0.0019157462 0.87564556)
(0.017115935 -0.0042617274 0.90696902)
(0.02258987 -0.010678816 0.92886386)
(0.029683781 -0.016186606 0.94085005)
(0.03605022 -0.019426715 0.94805545)
(5.5560876e-05 6.5874586e-05 0.17097678)
(-0.0005258249 0.00039232236 0.44377987)
(6.1165191e-05 0.00097756296 0.61576581)
(0.0019137882 -0.0003633939 0.72529311)
(0.0056969503 0.0002641055 0.80037968)
(0.010854831 0.0032295077 0.85298837)
(0.016493029 0.0064008556 0.89078192)
(0.022487259 0.0078228208 0.91837879)
(0.029046714 0.0072719164 0.93698422)
(0.03676442 0.0053912627 0.9469825)
(0.045709125 0.00091628849 0.95163739)
(0.0011877566 0.00093616158 0.17202138)
(0.0008958243 0.001110971 0.44812247)
(0.00065698438 0.0013465554 0.61760324)
(0.0018625205 -0.0004520618 0.72192833)
(0.0041690131 -0.0043057436 0.79888379)
(0.0079817971 -0.0067201339 0.85958927)
(0.013486395 -0.0057178904 0.90576864)
(0.020649631 -0.0018431358 0.93853606)
(0.029104596 0.0035449584 0.95894563)
(0.038391144 0.0096104298 0.9679748)
(0.049795551 0.012029834 0.96853536)
(0.0010917283 0.00059436578 0.17298276)
(0.0039133297 0.0043781348 0.45687739)
(0.0036427477 0.0058358702 0.63237281)
(0.0044661143 0.0058465534 0.72825238)
(0.0062689593 0.0017774427 0.79582857)
(0.0084337637 -0.0053398791 0.85545714)
(0.011486824 -0.012131484 0.90879526)
(0.016258812 -0.015485024 0.95269722)
(0.023268837 -0.014169823 0.98423269)
(0.032160259 -0.0077480974 1.001612)
(0.043458918 0.0010395598 1.0066839)
(-0.0022334728 -0.0023080507 0.17329537)
(-0.00025187845 0.001212666 0.46512506)
(0.00355913 0.0071545484 0.64729934)
(0.0058193701 0.0096760127 0.74248616)
(0.0084010393 0.0096495741 0.80123157)
(0.010771277 0.0052795621 0.85228729)
(0.012677873 -0.0030878983 0.90390154)
(0.014507473 -0.012537774 0.95453263)
(0.017364135 -0.019740249 0.9995569)
(0.022264326 -0.021554086 1.0337881)
(0.02955502 -0.01519989 1.0547968)
(-0.0044782738 -0.0039686221 0.17305305)
(-0.0080098439 -0.0061310152 0.47173995)
(-0.0025841108 0.0010328397 0.65867521)
(0.0015565357 0.0051058317 0.75719305)
(0.0049495134 0.0075914356 0.81501251)
(0.0083687483 0.0079187383 0.85980804)
(0.011116856 0.0047415151 0.90406753)
(0.012727893 -0.002100112 0.95168819)
(0.013467138 -0.011028764 1.0013709)
(0.014594483 -0.019557545 1.0486971)
(0.01703782 -0.021608686 1.0876484)
(-0.0035917713 -0.0031468709 0.17164664)
(-0.0083377409 -0.0068177076 0.47158218)
(-0.0071601767 -0.0039455618 0.67265675)
(-0.0036714321 0.00038603085 0.77497879)
(-0.00030858842 0.0021378249 0.83261652)
(0.0033539631 0.0028970379 0.87492865)
(0.006956855 0.0026518549 0.91359542)
(0.0098327887 0.00062986422 0.9542065)
(0.011490741 -0.0036750781 0.99908611)
(0.012183194 -0.010443606 1.047167)
(0.013057772 -0.017073751 1.0929003)
(-0.0036394614 -0.0037419318 0.17077881)
(-0.0050450957 -0.0033847878 0.46677362)
(-0.0062496112 -0.0025665512 0.67669159)
(-0.0045332186 0.00063878243 0.78740646)
(-0.0017575972 0.0016142195 0.8449487)
(0.0012513349 0.0008663779 0.88519465)
(0.004603065 -0.00071299536 0.92111458)
(0.0077693654 -0.0024214957 0.95737004)
(0.010257199 -0.0042677865 0.99666581)
(0.011727227 -0.0067675701 1.0399188)
(0.012856529 -0.010718353 1.0838061)
(-0.006574382 -0.0065150831 0.1711152)
(-0.0090300513 -0.0069069806 0.46980481)
(-0.0060421954 -0.001622554 0.66809116)
(-0.0038031053 0.00098022329 0.78177143)
(-0.0013016022 0.0026870089 0.84228308)
(0.0013014907 0.0022608448 0.8819962)
(0.0040479852 2.837685e-05 0.91597586)
(0.0065792667 -0.0029329568 0.9493942)
(0.0085602405 -0.0057290778 0.9847389)
(0.0097724024 -0.007877212 1.0235172)
(0.010166563 -0.0086492993 1.0650507)
(-0.008211775 -0.0071859697 0.1708701)
(-0.016810339 -0.014627243 0.47702987)
(-0.01136431 -0.0069689473 0.669676)
(-0.0065363303 -0.0026612517 0.7756907)
(-0.0031678811 7.2839465e-05 0.83522986)
(0.00019189874 0.00092309851 0.87417433)
(0.0032773122 4.5574852e-05 0.90606702)
(0.0059579212 -0.0020521043 0.93614992)
(0.0080373542 -0.0046797185 0.96682075)
(0.0093902409 -0.0072864147 0.99971431)
(0.0095198208 -0.0078243287 1.0363749)
(-0.006014639 -0.0047787343 0.17027428)
(-0.015925946 -0.014242311 0.47518667)
(-0.015512933 -0.011541375 0.68210488)
(-0.010964118 -0.0058004368 0.78518714)
(-0.0066503609 -0.0030511446 0.83901908)
(-0.0021535111 -0.0021507436 0.87437101)
(0.0022182296 -0.0026947059 0.90386035)
(0.0059692145 -0.0040896179 0.931757)
(0.0090538054 -0.0056822324 0.95947253)
(0.011529817 -0.0070609606 0.98814288)
(0.012971028 -0.0072371807 1.0191733)
(-0.0045548455 -0.0043611275 0.17106271)
(-0.0095698502 -0.0078780257 0.47076605)
(-0.01251437 -0.0076890033 0.69031931)
(-0.010746086 -0.0022046273 0.80070767)
(-0.0071052118 -0.00017621789 0.85077648)
(-0.0026553709 -0.00033525875 0.88157218)
(0.0025290982 -0.0024955503 0.90817357)
(0.0071648641 -0.0059356132 0.93461149)
(0.010804541 -0.0092148155 0.96100515)
(0.01394693 -0.011469687 0.98812327)
(0.01635751 -0.011333717 1.0175235)
(-0.0076531979 -0.0077703289 0.17259694)
(-0.011865663 -0.0097126217 0.4768341)
(-0.010675676 -0.0044549571 0.69279422)
(-0.0084885787 0.0030521321 0.80748829)
(-0.0050746491 0.006284667 0.85729481)
(-0.00095582264 0.0061486105 0.88535493)
(0.0043204272 0.0026992604 0.90985583)
(0.0093281852 -0.0035920244 0.93573055)
(0.012846815 -0.01067992 0.96186131)
(0.01540029 -0.016876123 0.98834033)
(0.01725459 -0.019433308 1.0189481)
(-0.010568789 -0.0097726099 0.17373792)
(-0.021394226 -0.018155441 0.49535838)
(-0.01835189 -0.011197309 0.70202259)
(-0.011850807 2.2736993e-05 0.81125794)
(-0.0061816197 0.0081544678 0.8591147)
(-0.00098999379 0.011450159 0.88404175)
(0.0047398757 0.010026561 0.90583209)
(0.010249056 0.003818901 0.93140213)
(0.013699989 -0.0056471445 0.95925309)
(0.014857673 -0.015923056 0.98700982)
(0.014543053 -0.023765024 1.0191948)
(-0.0095641914 -0.0075230486 0.17248706)
(-0.024298503 -0.02102648 0.50734139)
(-0.025723638 -0.019681839 0.71417529)
(-0.018926058 -0.010075664 0.82283952)
(-0.011633675 0.0021584046 0.86990085)
(-0.0047680149 0.010572319 0.89088429)
(0.0018938183 0.014645046 0.9069832)
(0.0082803052 0.013247388 0.92823272)
(0.01276867 0.0061702114 0.95536392)
(0.013962855 -0.0047101497 0.98367753)
(0.012244331 -0.016455701 1.0139949)
(-0.007383453 -0.0047924385 0.16914468)
(-0.020000164 -0.018674494 0.49999579)
(-0.023639603 -0.020047047 0.72514549)
(-0.021917919 -0.015346157 0.84105066)
(-0.016398038 -0.0066445813 0.89214893)
(-0.0096169833 0.0021131362 0.91347384)
(-0.0024914204 0.0089416438 0.92538405)
(0.0049769077 0.011898088 0.93909125)
(0.011681922 0.009844279 0.95900131)
(0.016003874 0.0026290398 0.9823908)
(0.017065929 -0.0078806741 1.006646)
(-0.0062755066 -0.0045113437 0.16636585)
(-0.017212806 -0.016842186 0.48198717)
(-0.021622011 -0.018943296 0.74169991)
(-0.020804441 -0.011649588 0.85947082)
(-0.017071965 -0.0079026767 0.90942265)
(-0.0116601 -0.0033411039 0.9317135)
(-0.004493572 0.00021611705 0.94324704)
(0.004161438 0.0016695625 0.95304264)
(0.012997397 0.00018227498 0.96741641)
(0.020628891 -0.0049337635 0.98747585)
(0.025847196 -0.013238481 1.0095127)
(-0.0053420598 -0.0051828096 0.16675403)
(-0.015893966 -0.013585109 0.46746219)
(-0.02561391 -0.022619114 0.75180365)
(-0.021656255 -0.010044732 0.87768141)
(-0.016840321 -0.002351608 0.91997093)
(-0.012170632 0.0022255887 0.93471513)
(-0.0052808282 0.0042631747 0.94139403)
(0.0038390377 0.0040051618 0.948697)
(0.013852705 0.00045724796 0.96406299)
(0.022701985 -0.005580022 0.98994189)
(0.029423303 -0.016988243 1.0200315)
(-0.0048666926 -0.0056658839 0.16958516)
(-0.014457495 -0.010828645 0.46358742)
(-0.025854067 -0.023287722 0.73345326)
(-0.024651768 -0.017036869 0.88334914)
(-0.019095338 -0.0011201604 0.93027219)
(-0.01423197 0.0095044806 0.93874281)
(-0.0085092447 0.016637444 0.93844838)
(-0.00074290545 0.020512409 0.94236408)
(0.0084942745 0.019949533 0.95932552)
(0.017422497 0.015393008 0.99200035)
(0.024651163 2.0721871e-05 1.0321888)
(-0.0056598505 -0.0048531117 0.17326001)
(-0.016129711 -0.01404001 0.47644167)
(-0.021716657 -0.020292596 0.7158449)
(-0.027359724 -0.025056861 0.88038132)
(-0.023830497 -0.010072414 0.9414341)
(-0.018249236 0.0057665721 0.95414146)
(-0.012597628 0.019604509 0.95262042)
(-0.0058894886 0.030088354 0.95354928)
(0.0019793859 0.036034014 0.96670522)
(0.010746354 0.036115773 0.99566461)
(0.019281483 0.024446559 1.0351416)
(-0.0039796234 -0.0019555127 0.17407877)
(-0.016042195 -0.015324136 0.4892531)
(-0.021094401 -0.020748907 0.7212102)
(-0.028133329 -0.02783371 0.88385011)
(-0.028473341 -0.022225493 0.95602328)
(-0.022910753 -0.0074013894 0.97705987)
(-0.015773456 0.0089053959 0.97833501)
(-0.0078474026 0.023395779 0.97636023)
(0.00037667373 0.033934054 0.9813577)